 Entering Gaussian System, Link 0=/home/ubuntu/g16/g16
 Input=3-CF3PhN2+_UB3LYP-aug-cc-pVDZ-Opt.gjf
 Output=3-CF3PhN2+_UB3LYP-aug-cc-pVDZ-Opt.log
 Initial command:
 /home/ubuntu/g16/l1.exe "/home/ubuntu/g09-linda/scr/Gau-5364.inp" -scrdir="/home/ubuntu/g09-linda/scr/"
 Entering Link 1 = /home/ubuntu/g16/l1.exe PID=      5366.
  
 Copyright (c) 1988,1990,1992,1993,1995,1998,2003,2009,2016,
            Gaussian, Inc.  All Rights Reserved.
  
 This is part of the Gaussian(R) 16 program.  It is based on
 the Gaussian(R) 09 system (copyright 2009, Gaussian, Inc.),
 the Gaussian(R) 03 system (copyright 2003, Gaussian, Inc.),
 the Gaussian(R) 98 system (copyright 1998, Gaussian, Inc.),
 the Gaussian(R) 94 system (copyright 1995, Gaussian, Inc.),
 the Gaussian 92(TM) system (copyright 1992, Gaussian, Inc.),
 the Gaussian 90(TM) system (copyright 1990, Gaussian, Inc.),
 the Gaussian 88(TM) system (copyright 1988, Gaussian, Inc.),
 the Gaussian 86(TM) system (copyright 1986, Carnegie Mellon
 University), and the Gaussian 82(TM) system (copyright 1983,
 Carnegie Mellon University). Gaussian is a federally registered
 trademark of Gaussian, Inc.
  
 This software contains proprietary and confidential information,
 including trade secrets, belonging to Gaussian, Inc.
  
 This software is provided under written license and may be
 used, copied, transmitted, or stored only in accord with that
 written license.
  
 The following legend is applicable only to US Government
 contracts under FAR:
  
                    RESTRICTED RIGHTS LEGEND
  
 Use, reproduction and disclosure by the US Government is
 subject to restrictions as set forth in subparagraphs (a)
 and (c) of the Commercial Computer Software - Restricted
 Rights clause in FAR 52.227-19.
  
 Gaussian, Inc.
 340 Quinnipiac St., Bldg. 40, Wallingford CT 06492
  
  
 ---------------------------------------------------------------
 Warning -- This program may not be used in any manner that
 competes with the business of Gaussian, Inc. or will provide
 assistance to any competitor of Gaussian, Inc.  The licensee
 of this program is prohibited from giving any competitor of
 Gaussian, Inc. access to this program.  By using this program,
 the user acknowledges that Gaussian, Inc. is engaged in the
 business of creating and licensing software in the field of
 computational chemistry and represents and warrants to the
 licensee that it is not a competitor of Gaussian, Inc. and that
 it will not use this program in any manner prohibited above.
 ---------------------------------------------------------------
  

 Cite this work as:
 Gaussian 16, Revision A.03,
 M. J. Frisch, G. W. Trucks, H. B. Schlegel, G. E. Scuseria, 
 M. A. Robb, J. R. Cheeseman, G. Scalmani, V. Barone, 
 G. A. Petersson, H. Nakatsuji, X. Li, M. Caricato, A. V. Marenich, 
 J. Bloino, B. G. Janesko, R. Gomperts, B. Mennucci, H. P. Hratchian, 
 J. V. Ortiz, A. F. Izmaylov, J. L. Sonnenberg, D. Williams-Young, 
 F. Ding, F. Lipparini, F. Egidi, J. Goings, B. Peng, A. Petrone, 
 T. Henderson, D. Ranasinghe, V. G. Zakrzewski, J. Gao, N. Rega, 
 G. Zheng, W. Liang, M. Hada, M. Ehara, K. Toyota, R. Fukuda, 
 J. Hasegawa, M. Ishida, T. Nakajima, Y. Honda, O. Kitao, H. Nakai, 
 T. Vreven, K. Throssell, J. A. Montgomery, Jr., J. E. Peralta, 
 F. Ogliaro, M. J. Bearpark, J. J. Heyd, E. N. Brothers, K. N. Kudin, 
 V. N. Staroverov, T. A. Keith, R. Kobayashi, J. Normand, 
 K. Raghavachari, A. P. Rendell, J. C. Burant, S. S. Iyengar, 
 J. Tomasi, M. Cossi, J. M. Millam, M. Klene, C. Adamo, R. Cammi, 
 J. W. Ochterski, R. L. Martin, K. Morokuma, O. Farkas, 
 J. B. Foresman, and D. J. Fox, Gaussian, Inc., Wallingford CT, 2016.
 
 ******************************************
 Gaussian 16:  ES64L-G16RevA.03 25-Dec-2016
                 8-Aug-2020 
 ******************************************
 %chk=3-CF3PhN2+_UB3LYP-aug-cc-pVDZ-Opt.chk
 %mem=500MW
 %nproc=7
 Will use up to    7 processors via shared memory.
 ----------------------------------------------------------------------
 #p opt=(maxcycles=777) freq ub3lyp/aug-cc-pVDZ pop=(Bonding,AllOrbital
 s,mk,no,nboread)
 ----------------------------------------------------------------------
 1/6=777,18=20,19=15,26=3,38=1/1,3;
 2/9=110,12=2,17=6,18=5,40=1/2;
 3/5=16,7=10,11=2,25=1,30=1,71=1,74=-5,116=2/1,2,3;
 4//1;
 5/5=2,38=5/2;
 6/7=2,8=2,9=2,10=2,15=8,20=1,22=-1,27=20,28=1,31=1,40=2,96=-1/1,2,7;
 7//1,2,3,16;
 1/6=777,18=20,19=15,26=3/3(2);
 2/9=110/2;
 99//99;
 2/9=110/2;
 3/5=16,7=10,11=2,25=1,30=1,71=1,74=-5,116=2/1,2,3;
 4/5=5,16=3,69=1/1;
 5/5=2,38=5/2;
 7//1,2,3,16;
 1/6=777,18=20,19=15,26=3/3(-5);
 2/9=110/2;
 6/7=2,8=2,9=2,10=2,15=8,19=2,20=1,22=-1,27=20,28=1,31=1,40=2,96=-1/1,2,7;
 99/9=1/99;
 Leave Link    1 at Sat Aug  8 21:22:22 2020, MaxMem=   524288000 cpu:               0.3 elap:               0.1
 (Enter /home/ubuntu/g16/l101.exe)
 -----------------------------
 3-CF3PhN2+_UB3LYP-aug-cc-pVDZ
 -----------------------------
 Symbolic Z-matrix:
 Charge =  1 Multiplicity = 1
 C                     2.03373   1.35739  -0.00001 
 C                     0.90461   2.16845   0. 
 C                     1.81792  -0.03508   0. 
 C                    -0.37561   1.59828   0.00003 
 C                     0.54719  -0.6447    0.00003 
 C                    -0.55104   0.20307   0.00004 
 N                     2.92792  -0.86402   0. 
 N                     3.82103  -1.52856  -0.00001 
 H                     1.0204    3.25126   0. 
 H                    -1.25143   2.24752   0.00004 
 H                     0.43519  -1.72712   0.00004 
 H                     3.04114   1.77064  -0.00003 
 C                    -1.96255  -0.36588   0.00001 
 F                    -2.63534   0.05211   1.09008 
 F                    -1.94891  -1.71296   0.00034 
 F                    -2.63503   0.05158  -1.09049 
 
 ITRead=  0  0  0  0  0  0  0  0  0  0  0  0  0  0  0  0
 MicOpt= -1 -1 -1 -1 -1 -1 -1 -1 -1 -1 -1 -1 -1 -1 -1 -1
 NAtoms=     16 NQM=       16 NQMF=       0 NMMI=      0 NMMIF=      0
                NMic=       0 NMicF=      0.
                    Isotopes and Nuclear Properties:
 (Nuclear quadrupole moments (NQMom) in fm**2, nuclear magnetic moments (NMagM)
  in nuclear magnetons)

  Atom         1           2           3           4           5           6           7           8           9          10
 IAtWgt=          12          12          12          12          12          12          14          14           1           1
 AtmWgt=  12.0000000  12.0000000  12.0000000  12.0000000  12.0000000  12.0000000  14.0030740  14.0030740   1.0078250   1.0078250
 NucSpn=           0           0           0           0           0           0           2           2           1           1
 AtZEff=  -0.0000000  -0.0000000  -0.0000000  -0.0000000  -0.0000000  -0.0000000  -0.0000000  -0.0000000  -0.0000000  -0.0000000
 NQMom=    0.0000000   0.0000000   0.0000000   0.0000000   0.0000000   0.0000000   2.0440000   2.0440000   0.0000000   0.0000000
 NMagM=    0.0000000   0.0000000   0.0000000   0.0000000   0.0000000   0.0000000   0.4037610   0.4037610   2.7928460   2.7928460
 AtZNuc=   6.0000000   6.0000000   6.0000000   6.0000000   6.0000000   6.0000000   7.0000000   7.0000000   1.0000000   1.0000000

  Atom        11          12          13          14          15          16
 IAtWgt=           1           1          12          19          19          19
 AtmWgt=   1.0078250   1.0078250  12.0000000  18.9984033  18.9984033  18.9984033
 NucSpn=           1           1           0           1           1           1
 AtZEff=  -0.0000000  -0.0000000  -0.0000000  -0.0000000  -0.0000000  -0.0000000
 NQMom=    0.0000000   0.0000000   0.0000000   0.0000000   0.0000000   0.0000000
 NMagM=    2.7928460   2.7928460   0.0000000   2.6288670   2.6288670   2.6288670
 AtZNuc=   1.0000000   1.0000000   6.0000000   9.0000000   9.0000000   9.0000000
 Leave Link  101 at Sat Aug  8 21:22:22 2020, MaxMem=   524288000 cpu:               0.7 elap:               0.1
 (Enter /home/ubuntu/g16/l103.exe)

 GradGradGradGradGradGradGradGradGradGradGradGradGradGradGradGradGradGrad
 Berny optimization.
 Initialization pass.
                           ----------------------------
                           !    Initial Parameters    !
                           ! (Angstroms and Degrees)  !
 --------------------------                            --------------------------
 ! Name  Definition              Value          Derivative Info.                !
 --------------------------------------------------------------------------------
 ! R1    R(1,2)                  1.3902         estimate D2E/DX2                !
 ! R2    R(1,3)                  1.4091         estimate D2E/DX2                !
 ! R3    R(1,12)                 1.0889         estimate D2E/DX2                !
 ! R4    R(2,4)                  1.4014         estimate D2E/DX2                !
 ! R5    R(2,9)                  1.089          estimate D2E/DX2                !
 ! R6    R(3,5)                  1.4094         estimate D2E/DX2                !
 ! R7    R(3,7)                  1.3854         estimate D2E/DX2                !
 ! R8    R(4,6)                  1.4062         estimate D2E/DX2                !
 ! R9    R(4,10)                 1.0902         estimate D2E/DX2                !
 ! R10   R(5,6)                  1.3874         estimate D2E/DX2                !
 ! R11   R(5,11)                 1.0882         estimate D2E/DX2                !
 ! R12   R(6,13)                 1.5219         estimate D2E/DX2                !
 ! R13   R(7,8)                  1.1132         estimate D2E/DX2                !
 ! R14   R(13,14)                1.3474         estimate D2E/DX2                !
 ! R15   R(13,15)                1.3471         estimate D2E/DX2                !
 ! R16   R(13,16)                1.3475         estimate D2E/DX2                !
 ! A1    A(2,1,3)              116.8803         estimate D2E/DX2                !
 ! A2    A(2,1,12)             122.0059         estimate D2E/DX2                !
 ! A3    A(3,1,12)             121.1138         estimate D2E/DX2                !
 ! A4    A(1,2,4)              120.3032         estimate D2E/DX2                !
 ! A5    A(1,2,9)              119.5864         estimate D2E/DX2                !
 ! A6    A(4,2,9)              120.1104         estimate D2E/DX2                !
 ! A7    A(1,3,5)              124.4387         estimate D2E/DX2                !
 ! A8    A(1,3,7)              117.9423         estimate D2E/DX2                !
 ! A9    A(5,3,7)              117.619          estimate D2E/DX2                !
 ! A10   A(2,4,6)              121.1733         estimate D2E/DX2                !
 ! A11   A(2,4,10)             119.444          estimate D2E/DX2                !
 ! A12   A(6,4,10)             119.3827         estimate D2E/DX2                !
 ! A13   A(3,5,6)              116.705          estimate D2E/DX2                !
 ! A14   A(3,5,11)             121.5364         estimate D2E/DX2                !
 ! A15   A(6,5,11)             121.7586         estimate D2E/DX2                !
 ! A16   A(4,6,5)              120.4995         estimate D2E/DX2                !
 ! A17   A(4,6,13)             119.1199         estimate D2E/DX2                !
 ! A18   A(5,6,13)             120.3806         estimate D2E/DX2                !
 ! A19   A(6,13,14)            110.3109         estimate D2E/DX2                !
 ! A20   A(6,13,15)            111.3732         estimate D2E/DX2                !
 ! A21   A(6,13,16)            110.3083         estimate D2E/DX2                !
 ! A22   A(14,13,15)           108.3638         estimate D2E/DX2                !
 ! A23   A(14,13,16)           108.0239         estimate D2E/DX2                !
 ! A24   A(15,13,16)           108.3635         estimate D2E/DX2                !
 ! A25   L(3,7,8,11,-1)        180.1001         estimate D2E/DX2                !
 ! A26   L(3,7,8,11,-2)        179.9994         estimate D2E/DX2                !
 ! D1    D(3,1,2,4)              0.0005         estimate D2E/DX2                !
 ! D2    D(3,1,2,9)            179.9996         estimate D2E/DX2                !
 ! D3    D(12,1,2,4)          -179.9998         estimate D2E/DX2                !
 ! D4    D(12,1,2,9)            -0.0007         estimate D2E/DX2                !
 ! D5    D(2,1,3,5)             -0.0005         estimate D2E/DX2                !
 ! D6    D(2,1,3,7)           -179.9995         estimate D2E/DX2                !
 ! D7    D(12,1,3,5)           179.9998         estimate D2E/DX2                !
 ! D8    D(12,1,3,7)             0.0008         estimate D2E/DX2                !
 ! D9    D(1,2,4,6)             -0.0005         estimate D2E/DX2                !
 ! D10   D(1,2,4,10)           179.9998         estimate D2E/DX2                !
 ! D11   D(9,2,4,6)           -179.9996         estimate D2E/DX2                !
 ! D12   D(9,2,4,10)             0.0008         estimate D2E/DX2                !
 ! D13   D(1,3,5,6)              0.0005         estimate D2E/DX2                !
 ! D14   D(1,3,5,11)          -179.9998         estimate D2E/DX2                !
 ! D15   D(7,3,5,6)            179.9995         estimate D2E/DX2                !
 ! D16   D(7,3,5,11)            -0.0008         estimate D2E/DX2                !
 ! D17   D(2,4,6,5)              0.0005         estimate D2E/DX2                !
 ! D18   D(2,4,6,13)          -179.9973         estimate D2E/DX2                !
 ! D19   D(10,4,6,5)          -179.9999         estimate D2E/DX2                !
 ! D20   D(10,4,6,13)            0.0024         estimate D2E/DX2                !
 ! D21   D(3,5,6,4)             -0.0004         estimate D2E/DX2                !
 ! D22   D(3,5,6,13)           179.9973         estimate D2E/DX2                !
 ! D23   D(11,5,6,4)           179.9998         estimate D2E/DX2                !
 ! D24   D(11,5,6,13)           -0.0024         estimate D2E/DX2                !
 ! D25   D(4,6,13,14)          -59.6144         estimate D2E/DX2                !
 ! D26   D(4,6,13,15)         -179.9856         estimate D2E/DX2                !
 ! D27   D(4,6,13,16)           59.6455         estimate D2E/DX2                !
 ! D28   D(5,6,13,14)          120.3878         estimate D2E/DX2                !
 ! D29   D(5,6,13,15)            0.0167         estimate D2E/DX2                !
 ! D30   D(5,6,13,16)         -120.3523         estimate D2E/DX2                !
 --------------------------------------------------------------------------------
 Trust Radius=3.00D-01 FncErr=1.00D-07 GrdErr=1.00D-06 EigMax=2.50D+02 EigMin=1.00D-04
 Number of steps in this run=    100 maximum allowed number of steps=    100.
 GradGradGradGradGradGradGradGradGradGradGradGradGradGradGradGradGradGrad

 Leave Link  103 at Sat Aug  8 21:22:22 2020, MaxMem=   524288000 cpu:               0.1 elap:               0.0
 (Enter /home/ubuntu/g16/l202.exe)
                          Input orientation:                          
 ---------------------------------------------------------------------
 Center     Atomic      Atomic             Coordinates (Angstroms)
 Number     Number       Type             X           Y           Z
 ---------------------------------------------------------------------
      1          6           0        2.033730    1.357390   -0.000010
      2          6           0        0.904610    2.168450    0.000000
      3          6           0        1.817920   -0.035080    0.000000
      4          6           0       -0.375610    1.598280    0.000030
      5          6           0        0.547190   -0.644700    0.000030
      6          6           0       -0.551040    0.203070    0.000040
      7          7           0        2.927920   -0.864020    0.000000
      8          7           0        3.821030   -1.528560   -0.000010
      9          1           0        1.020400    3.251260    0.000000
     10          1           0       -1.251430    2.247520    0.000040
     11          1           0        0.435190   -1.727120    0.000040
     12          1           0        3.041140    1.770640   -0.000030
     13          6           0       -1.962550   -0.365880    0.000010
     14          9           0       -2.635340    0.052110    1.090080
     15          9           0       -1.948910   -1.712960    0.000340
     16          9           0       -2.635030    0.051580   -1.090490
 ---------------------------------------------------------------------
                    Distance matrix (angstroms):
                    1          2          3          4          5
     1  C    0.000000
     2  C    1.390227   0.000000
     3  C    1.409094   2.385305   0.000000
     4  C    2.421352   1.401448   2.734856   0.000000
     5  C    2.493625   2.835765   1.409394   2.425391   0.000000
     6  C    2.830811   2.445738   2.380900   1.406196   1.387380
     7  N    2.394627   3.645498   1.385367   4.120222   2.390811
     8  N    3.394576   4.708863   2.498586   5.233442   3.391052
     9  H    2.147925   1.088983   3.381726   2.163605   3.924593
    10  H    3.403617   2.157489   3.825072   1.090217   3.405873
    11  H    3.474123   3.923751   2.185164   3.422818   1.088199
    12  H    1.088876   2.173249   2.181030   3.421095   3.471837
    13  C    4.352001   3.826674   3.794915   2.525134   2.525180
    14  F    4.969131   4.265960   4.585564   2.947071   3.435440
    15  F    5.028764   4.817460   4.123626   3.666004   2.715087
    16  F    4.969065   4.266071   4.585351   2.947286   3.435195
                    6          7          8          9         10
     6  C    0.000000
     7  N    3.638934   0.000000
     8  N    4.702503   1.113220   0.000000
     9  H    3.429415   4.535875   5.539874   0.000000
    10  H    2.161093   5.210436   6.323656   2.483688   0.000000
    11  H    2.167552   2.637924   3.391657   5.012658   4.317690
    12  H    3.919315   2.637092   3.390125   2.505120   4.318978
    13  C    1.521862   4.915775   5.899290   4.688464   2.708422
    14  F    2.356965   5.742598   6.735839   4.978682   2.814821
    15  F    2.371753   4.950169   5.772886   5.784486   4.021428
    16  F    2.356951   5.742291   6.735481   4.978884   2.815272
                   11         12         13         14         15
    11  H    0.000000
    12  H    4.361800   0.000000
    13  C    2.757196   5.440738   0.000000
    14  F    3.712412   6.030266   1.347447   0.000000
    15  F    2.384142   6.085727   1.347149   2.184992   0.000000
    16  F    3.712045   6.030189   1.347476   2.180570   2.185011
                   16
    16  F    0.000000
 Stoichiometry    C7H4F3N2(1+)
 Framework group  C1[X(C7H4F3N2)]
 Deg. of freedom    42
 Full point group                 C1      NOp   1
 Largest Abelian subgroup         C1      NOp   1
 Largest concise Abelian subgroup C1      NOp   1
                         Standard orientation:                         
 ---------------------------------------------------------------------
 Center     Atomic      Atomic             Coordinates (Angstroms)
 Number     Number       Type             X           Y           Z
 ---------------------------------------------------------------------
      1          6           0       -2.033731    1.357390    0.000009
      2          6           0       -0.904611    2.168450   -0.000001
      3          6           0       -1.817921   -0.035080   -0.000001
      4          6           0        0.375609    1.598280   -0.000031
      5          6           0       -0.547191   -0.644700   -0.000031
      6          6           0        0.551039    0.203070   -0.000041
      7          7           0       -2.927921   -0.864021   -0.000001
      8          7           0       -3.821030   -1.528561    0.000009
      9          1           0       -1.020402    3.251260   -0.000001
     10          1           0        1.251429    2.247520   -0.000041
     11          1           0       -0.435190   -1.727120   -0.000041
     12          1           0       -3.041141    1.770639    0.000029
     13          6           0        1.962549   -0.365879   -0.000011
     14          9           0        2.635339    0.052111   -1.090081
     15          9           0        1.948910   -1.712959   -0.000341
     16          9           0        2.635029    0.051581    1.090489
 ---------------------------------------------------------------------
 Rotational constants (GHZ):           1.7915617           0.5799207           0.4753307
 Leave Link  202 at Sat Aug  8 21:22:22 2020, MaxMem=   524288000 cpu:               0.1 elap:               0.0
 (Enter /home/ubuntu/g16/l301.exe)
 Standard basis: Aug-CC-pVDZ (5D, 7F)
 Ernie: Thresh=  0.10000D-02 Tol=  0.10000D-05 Strict=F.
 Ernie:  24 primitive shells out of 328 were deleted.
 There are   336 symmetry adapted cartesian basis functions of A   symmetry.
 There are   312 symmetry adapted basis functions of A   symmetry.
   312 basis functions,   560 primitive gaussians,   336 cartesian basis functions
    43 alpha electrons       43 beta electrons
       nuclear repulsion energy       674.2635591130 Hartrees.
 IExCor=  402 DFT=T Ex+Corr=B3LYP ExCW=0 ScaHFX=  0.200000
 ScaDFX=  0.800000  0.720000  1.000000  0.810000 ScalE2=  1.000000  1.000000
 IRadAn=      5 IRanWt=     -1 IRanGd=            0 ICorTp=0 IEmpDi=  4
 NAtoms=   16 NActive=   16 NUniq=   16 SFac= 1.00D+00 NAtFMM=   60 NAOKFM=F Big=F
 Integral buffers will be    131072 words long.
 Raffenetti 2 integral format.
 Two-electron integral symmetry is turned on.
 Leave Link  301 at Sat Aug  8 21:22:22 2020, MaxMem=   524288000 cpu:               0.3 elap:               0.0
 (Enter /home/ubuntu/g16/l302.exe)
 NPDir=0 NMtPBC=     1 NCelOv=     1 NCel=       1 NClECP=     1 NCelD=      1
         NCelK=      1 NCelE2=     1 NClLst=     1 CellRange=     0.0.
 One-electron integrals computed using PRISM.
 One-electron integral symmetry used in STVInt
 NBasis=   312 RedAO= T EigKep=  2.06D-06  NBF=   312
 NBsUse=   312 1.00D-06 EigRej= -1.00D+00 NBFU=   312
 Precomputing XC quadrature grid using
 IXCGrd= 4 IRadAn=           5 IRanWt=          -1 IRanGd=           0 AccXCQ= 0.00D+00.
 Generated NRdTot=       0 NPtTot=           0 NUsed=           0 NTot=          32
 NSgBfM=   336   336   336   336   336 MxSgAt=    16 MxSgA2=    16.
 Leave Link  302 at Sat Aug  8 21:22:22 2020, MaxMem=   524288000 cpu:               3.0 elap:               0.4
 (Enter /home/ubuntu/g16/l303.exe)
 DipDrv:  MaxL=1.
 Leave Link  303 at Sat Aug  8 21:22:22 2020, MaxMem=   524288000 cpu:               0.4 elap:               0.1
 (Enter /home/ubuntu/g16/l401.exe)
 ExpMin= 2.97D-02 ExpMax= 1.47D+04 ExpMxC= 5.03D+02 IAcc=3 IRadAn=         5 AccDes= 0.00D+00
 Harris functional with IExCor=  402 and IRadAn=       5 diagonalized for initial guess.
 HarFok:  IExCor=  402 AccDes= 0.00D+00 IRadAn=         5 IDoV= 1 UseB2=F ITyADJ=14
 ICtDFT=  3500011 ScaDFX=  1.000000  1.000000  1.000000  1.000000
 FoFCou: FMM=F IPFlag=           0 FMFlag=      100000 FMFlg1=           0
         NFxFlg=           0 DoJE=T BraDBF=F KetDBF=T FulRan=T
         wScrn=  0.000000 ICntrl=       500 IOpCl=  0 I1Cent=   200000004 NGrid=           0
         NMat0=    1 NMatS0=      1 NMatT0=    0 NMatD0=    1 NMtDS0=    0 NMtDT0=    0
 Petite list used in FoFCou.
 Harris En= -677.971391998123    
 JPrj=0 DoOrth=F DoCkMO=F.
 Initial guess <Sx>= 0.0000 <Sy>= 0.0000 <Sz>= 0.0000 <S**2>=-0.0000 S=-0.0000
 Leave Link  401 at Sat Aug  8 21:22:26 2020, MaxMem=   524288000 cpu:              23.3 elap:               3.4
 (Enter /home/ubuntu/g16/l502.exe)
 Integral symmetry usage will be decided dynamically.
 UHF open shell SCF:
 Using DIIS extrapolation, IDIIS=  1040.
 NGot=   524288000 LenX=   524056732 LenY=   523943395
 Requested convergence on RMS density matrix=1.00D-08 within 128 cycles.
 Requested convergence on MAX density matrix=1.00D-06.
 Requested convergence on             energy=1.00D-06.
 No special actions if energy rises.
 Fock matrices will be formed incrementally for  20 cycles.

 Cycle   1  Pass 1  IDiag  1:
 FoFJK:  IHMeth= 1 ICntrl=       0 DoSepK=F KAlg= 0 I1Cent=           0 FoldK=F
 IRaf= 970000000 NMat=       1 IRICut=       1 DoRegI=T DoRafI=F ISym2E= 0 IDoP0=0 IntGTp=1.
 FoFCou: FMM=F IPFlag=           0 FMFlag=      100000 FMFlg1=           0
         NFxFlg=           0 DoJE=F BraDBF=F KetDBF=F FulRan=T
         wScrn=  0.000000 ICntrl=         0 IOpCl=  1 I1Cent=           0 NGrid=           0
         NMat0=    1 NMatS0=      1 NMatT0=    0 NMatD0=    1 NMtDS0=    0 NMtDT0=    0
 Symmetry not used in FoFCou.
 E= -677.733873192312    
 DIIS: error= 2.10D-02 at cycle   1 NSaved=   1.
 NSaved= 1 IEnMin= 1 EnMin= -677.733873192312     IErMin= 1 ErrMin= 2.10D-02
 ErrMax= 2.10D-02  0.00D+00 EMaxC= 1.00D-01 BMatC= 8.79D-01 BMatP= 8.79D-01
 IDIUse=3 WtCom= 7.90D-01 WtEn= 2.10D-01
 Coeff-Com:  0.100D+01
 Coeff-En:   0.100D+01
 Coeff:      0.100D+01
 Gap=     0.156 Goal=   None    Shift=    0.000
 Gap=     0.156 Goal=   None    Shift=    0.000
 GapD=    0.156 DampG=1.000 DampE=0.500 DampFc=0.5000 IDamp=-1.
 Damping current iteration by 5.00D-01
 RMSDP=3.75D-02 MaxDP=2.72D+00              OVMax= 9.51D-01

 Cycle   2  Pass 1  IDiag  1:
 RMSU=  9.73D-03    CP:  8.33D-01
 E= -677.094873599875     Delta-E=        0.638999592437 Rises=F Damp=T
 DIIS: error= 2.77D-02 at cycle   2 NSaved=   2.
 NSaved= 2 IEnMin= 1 EnMin= -677.733873192312     IErMin= 1 ErrMin= 2.10D-02
 ErrMax= 2.77D-02  0.00D+00 EMaxC= 1.00D-01 BMatC= 1.12D+00 BMatP= 8.79D-01
 IDIUse=2 WtCom= 0.00D+00 WtEn= 1.00D+00
 Coeff-En:   0.831D+00 0.169D+00
 Coeff:      0.831D+00 0.169D+00
 Gap=    -0.077 Goal=   None    Shift=    0.000
 Gap=    -0.077 Goal=   None    Shift=    0.000
 RMSDP=2.03D-02 MaxDP=1.72D+00 DE= 6.39D-01 OVMax= 9.94D-01

 Cycle   3  Pass 1  IDiag  1:
 RMSU=  5.26D-03    CP:  6.37D-01  1.59D+00
 E= -677.755108239880     Delta-E=       -0.660234640006 Rises=F Damp=F
 DIIS: error= 2.03D-02 at cycle   3 NSaved=   3.
 NSaved= 3 IEnMin= 3 EnMin= -677.755108239880     IErMin= 3 ErrMin= 2.03D-02
 ErrMax= 2.03D-02  0.00D+00 EMaxC= 1.00D-01 BMatC= 9.50D-01 BMatP= 8.79D-01
 IDIUse=3 WtCom= 7.97D-01 WtEn= 2.03D-01
 Coeff-Com:  0.488D+00 0.989D-01 0.414D+00
 Coeff-En:   0.478D+00 0.000D+00 0.522D+00
 Coeff:      0.485D+00 0.789D-01 0.436D+00
 Gap=     0.180 Goal=   None    Shift=    0.000
 Gap=     0.180 Goal=   None    Shift=    0.000
 RMSDP=6.68D-03 MaxDP=2.73D-01 DE=-6.60D-01 OVMax= 1.67D-01

 Cycle   4  Pass 1  IDiag  1:
 RMSU=  4.39D-03    CP:  6.27D-01  1.08D+00  1.12D+00
 E= -677.939105557116     Delta-E=       -0.183997317236 Rises=F Damp=F
 DIIS: error= 9.33D-03 at cycle   4 NSaved=   4.
 NSaved= 4 IEnMin= 4 EnMin= -677.939105557116     IErMin= 4 ErrMin= 9.33D-03
 ErrMax= 9.33D-03  0.00D+00 EMaxC= 1.00D-01 BMatC= 7.96D-02 BMatP= 8.79D-01
 IDIUse=3 WtCom= 9.07D-01 WtEn= 9.33D-02
 Coeff-Com:  0.219D+00 0.116D-01 0.275D+00 0.494D+00
 Coeff-En:   0.000D+00 0.000D+00 0.828D-02 0.992D+00
 Coeff:      0.199D+00 0.105D-01 0.250D+00 0.541D+00
 Gap=     0.163 Goal=   None    Shift=    0.000
 Gap=     0.163 Goal=   None    Shift=    0.000
 RMSDP=1.97D-03 MaxDP=1.04D-01 DE=-1.84D-01 OVMax= 5.19D-02

 Cycle   5  Pass 1  IDiag  1:
 RMSU=  1.46D-03    CP:  6.39D-01  1.08D+00  1.06D+00  8.51D-01
 E= -677.947654879064     Delta-E=       -0.008549321948 Rises=F Damp=F
 DIIS: error= 6.91D-03 at cycle   5 NSaved=   5.
 NSaved= 5 IEnMin= 5 EnMin= -677.947654879064     IErMin= 5 ErrMin= 6.91D-03
 ErrMax= 6.91D-03  0.00D+00 EMaxC= 1.00D-01 BMatC= 3.80D-02 BMatP= 7.96D-02
 IDIUse=3 WtCom= 9.31D-01 WtEn= 6.91D-02
 Coeff-Com:  0.408D-01-0.630D-02 0.866D-01 0.425D+00 0.454D+00
 Coeff-En:   0.000D+00 0.000D+00 0.000D+00 0.368D+00 0.632D+00
 Coeff:      0.380D-01-0.586D-02 0.806D-01 0.421D+00 0.466D+00
 Gap=     0.164 Goal=   None    Shift=    0.000
 Gap=     0.164 Goal=   None    Shift=    0.000
 RMSDP=6.89D-04 MaxDP=2.97D-02 DE=-8.55D-03 OVMax= 2.46D-02

 Cycle   6  Pass 1  IDiag  1:
 RMSU=  5.71D-04    CP:  6.40D-01  1.08D+00  1.07D+00  8.57D-01  7.54D-01
 E= -677.955356556343     Delta-E=       -0.007701677279 Rises=F Damp=F
 DIIS: error= 1.04D-03 at cycle   6 NSaved=   6.
 NSaved= 6 IEnMin= 6 EnMin= -677.955356556343     IErMin= 6 ErrMin= 1.04D-03
 ErrMax= 1.04D-03  0.00D+00 EMaxC= 1.00D-01 BMatC= 1.37D-03 BMatP= 3.80D-02
 IDIUse=3 WtCom= 9.90D-01 WtEn= 1.04D-02
 Coeff-Com:  0.819D-02-0.729D-02 0.231D-01 0.179D+00 0.261D+00 0.537D+00
 Coeff-En:   0.000D+00 0.000D+00 0.000D+00 0.000D+00 0.000D+00 0.100D+01
 Coeff:      0.810D-02-0.721D-02 0.229D-01 0.177D+00 0.258D+00 0.542D+00
 Gap=     0.165 Goal=   None    Shift=    0.000
 Gap=     0.165 Goal=   None    Shift=    0.000
 RMSDP=3.18D-04 MaxDP=2.32D-02 DE=-7.70D-03 OVMax= 4.63D-03

 Cycle   7  Pass 1  IDiag  1:
 RMSU=  1.80D-04    CP:  6.38D-01  1.09D+00  1.07D+00  8.68D-01  7.26D-01
                    CP:  7.42D-01
 E= -677.955601783905     Delta-E=       -0.000245227562 Rises=F Damp=F
 DIIS: error= 2.83D-04 at cycle   7 NSaved=   7.
 NSaved= 7 IEnMin= 7 EnMin= -677.955601783905     IErMin= 7 ErrMin= 2.83D-04
 ErrMax= 2.83D-04  0.00D+00 EMaxC= 1.00D-01 BMatC= 1.49D-04 BMatP= 1.37D-03
 IDIUse=3 WtCom= 9.97D-01 WtEn= 2.83D-03
 Coeff-Com:  0.247D-02-0.605D-02 0.444D-02 0.466D-01 0.936D-01 0.290D+00
 Coeff-Com:  0.569D+00
 Coeff-En:   0.000D+00 0.000D+00 0.000D+00 0.000D+00 0.000D+00 0.000D+00
 Coeff-En:   0.100D+01
 Coeff:      0.247D-02-0.603D-02 0.442D-02 0.464D-01 0.933D-01 0.290D+00
 Coeff:      0.570D+00
 Gap=     0.166 Goal=   None    Shift=    0.000
 Gap=     0.166 Goal=   None    Shift=    0.000
 RMSDP=9.75D-05 MaxDP=5.74D-03 DE=-2.45D-04 OVMax= 2.13D-03

 Cycle   8  Pass 1  IDiag  1:
 RMSU=  5.81D-05    CP:  6.37D-01  1.09D+00  1.07D+00  8.67D-01  7.33D-01
                    CP:  7.68D-01  6.51D-01
 E= -677.955630890020     Delta-E=       -0.000029106114 Rises=F Damp=F
 DIIS: error= 1.68D-04 at cycle   8 NSaved=   8.
 NSaved= 8 IEnMin= 8 EnMin= -677.955630890020     IErMin= 8 ErrMin= 1.68D-04
 ErrMax= 1.68D-04  0.00D+00 EMaxC= 1.00D-01 BMatC= 3.68D-05 BMatP= 1.49D-04
 IDIUse=3 WtCom= 9.98D-01 WtEn= 1.68D-03
 Coeff-Com:  0.254D-02-0.473D-02 0.206D-02 0.116D-01 0.323D-01 0.115D+00
 Coeff-Com:  0.302D+00 0.539D+00
 Coeff-En:   0.000D+00 0.000D+00 0.000D+00 0.000D+00 0.000D+00 0.000D+00
 Coeff-En:   0.000D+00 0.100D+01
 Coeff:      0.253D-02-0.472D-02 0.206D-02 0.116D-01 0.323D-01 0.115D+00
 Coeff:      0.302D+00 0.540D+00
 Gap=     0.166 Goal=   None    Shift=    0.000
 Gap=     0.166 Goal=   None    Shift=    0.000
 RMSDP=3.05D-05 MaxDP=1.39D-03 DE=-2.91D-05 OVMax= 1.10D-03

 Cycle   9  Pass 1  IDiag  1:
 RMSU=  2.14D-05    CP:  6.37D-01  1.08D+00  1.07D+00  8.69D-01  7.28D-01
                    CP:  7.69D-01  6.73D-01  9.10D-01
 E= -677.955639409714     Delta-E=       -0.000008519694 Rises=F Damp=F
 DIIS: error= 9.26D-05 at cycle   9 NSaved=   9.
 NSaved= 9 IEnMin= 9 EnMin= -677.955639409714     IErMin= 9 ErrMin= 9.26D-05
 ErrMax= 9.26D-05  0.00D+00 EMaxC= 1.00D-01 BMatC= 1.22D-05 BMatP= 3.68D-05
 IDIUse=1 WtCom= 1.00D+00 WtEn= 0.00D+00
 Coeff-Com:  0.225D-02-0.199D-02 0.103D-02-0.926D-02-0.166D-01-0.552D-01
 Coeff-Com: -0.103D+00 0.209D+00 0.974D+00
 Coeff:      0.225D-02-0.199D-02 0.103D-02-0.926D-02-0.166D-01-0.552D-01
 Coeff:     -0.103D+00 0.209D+00 0.974D+00
 Gap=     0.166 Goal=   None    Shift=    0.000
 Gap=     0.166 Goal=   None    Shift=    0.000
 RMSDP=1.95D-05 MaxDP=7.13D-04 DE=-8.52D-06 OVMax= 9.38D-04

 Cycle  10  Pass 1  IDiag  1:
 RMSU=  1.54D-05    CP:  6.37D-01  1.08D+00  1.08D+00  8.68D-01  7.28D-01
                    CP:  7.63D-01  6.61D-01  1.01D+00  1.03D+00
 E= -677.955643152342     Delta-E=       -0.000003742628 Rises=F Damp=F
 DIIS: error= 4.03D-05 at cycle  10 NSaved=  10.
 NSaved=10 IEnMin=10 EnMin= -677.955643152342     IErMin=10 ErrMin= 4.03D-05
 ErrMax= 4.03D-05  0.00D+00 EMaxC= 1.00D-01 BMatC= 1.86D-06 BMatP= 1.22D-05
 IDIUse=1 WtCom= 1.00D+00 WtEn= 0.00D+00
 Coeff-Com:  0.824D-03-0.419D-03 0.413D-03-0.364D-02-0.108D-01-0.375D-01
 Coeff-Com: -0.101D+00-0.661D-01 0.349D+00 0.869D+00
 Coeff:      0.824D-03-0.419D-03 0.413D-03-0.364D-02-0.108D-01-0.375D-01
 Coeff:     -0.101D+00-0.661D-01 0.349D+00 0.869D+00
 Gap=     0.166 Goal=   None    Shift=    0.000
 Gap=     0.166 Goal=   None    Shift=    0.000
 RMSDP=1.36D-05 MaxDP=6.37D-04 DE=-3.74D-06 OVMax= 4.08D-04

 Cycle  11  Pass 1  IDiag  1:
 RMSU=  8.08D-06    CP:  6.37D-01  1.08D+00  1.08D+00  8.67D-01  7.25D-01
                    CP:  7.66D-01  6.37D-01  1.05D+00  1.22D+00  9.36D-01
 E= -677.955643705348     Delta-E=       -0.000000553006 Rises=F Damp=F
 DIIS: error= 1.44D-05 at cycle  11 NSaved=  11.
 NSaved=11 IEnMin=11 EnMin= -677.955643705348     IErMin=11 ErrMin= 1.44D-05
 ErrMax= 1.44D-05  0.00D+00 EMaxC= 1.00D-01 BMatC= 3.96D-07 BMatP= 1.86D-06
 IDIUse=1 WtCom= 1.00D+00 WtEn= 0.00D+00
 Coeff-Com:  0.200D-03-0.425D-04 0.212D-03 0.782D-04-0.283D-02-0.104D-01
 Coeff-Com: -0.386D-01-0.759D-01 0.249D-01 0.543D+00 0.560D+00
 Coeff:      0.200D-03-0.425D-04 0.212D-03 0.782D-04-0.283D-02-0.104D-01
 Coeff:     -0.386D-01-0.759D-01 0.249D-01 0.543D+00 0.560D+00
 Gap=     0.166 Goal=   None    Shift=    0.000
 Gap=     0.166 Goal=   None    Shift=    0.000
 RMSDP=4.75D-06 MaxDP=2.31D-04 DE=-5.53D-07 OVMax= 1.81D-04

 Cycle  12  Pass 1  IDiag  1:
 RMSU=  2.80D-06    CP:  6.37D-01  1.08D+00  1.08D+00  8.68D-01  7.24D-01
                    CP:  7.65D-01  6.42D-01  1.06D+00  1.20D+00  9.98D-01
                    CP:  7.23D-01
 E= -677.955643811355     Delta-E=       -0.000000106007 Rises=F Damp=F
 DIIS: error= 3.43D-06 at cycle  12 NSaved=  12.
 NSaved=12 IEnMin=12 EnMin= -677.955643811355     IErMin=12 ErrMin= 3.43D-06
 ErrMax= 3.43D-06  0.00D+00 EMaxC= 1.00D-01 BMatC= 2.01D-08 BMatP= 3.96D-07
 IDIUse=1 WtCom= 1.00D+00 WtEn= 0.00D+00
 Coeff-Com:  0.579D-04-0.110D-04 0.107D-03 0.519D-03-0.210D-03-0.130D-02
 Coeff-Com: -0.954D-02-0.314D-01-0.171D-01 0.210D+00 0.281D+00 0.568D+00
 Coeff:      0.579D-04-0.110D-04 0.107D-03 0.519D-03-0.210D-03-0.130D-02
 Coeff:     -0.954D-02-0.314D-01-0.171D-01 0.210D+00 0.281D+00 0.568D+00
 Gap=     0.166 Goal=   None    Shift=    0.000
 Gap=     0.166 Goal=   None    Shift=    0.000
 RMSDP=1.50D-06 MaxDP=1.05D-04 DE=-1.06D-07 OVMax= 4.43D-05

 Cycle  13  Pass 1  IDiag  1:
 RMSU=  1.01D-06    CP:  6.37D-01  1.08D+00  1.08D+00  8.68D-01  7.25D-01
                    CP:  7.64D-01  6.42D-01  1.05D+00  1.20D+00  9.98D-01
                    CP:  7.34D-01  8.85D-01
 E= -677.955643815889     Delta-E=       -0.000000004534 Rises=F Damp=F
 DIIS: error= 1.54D-06 at cycle  13 NSaved=  13.
 NSaved=13 IEnMin=13 EnMin= -677.955643815889     IErMin=13 ErrMin= 1.54D-06
 ErrMax= 1.54D-06  0.00D+00 EMaxC= 1.00D-01 BMatC= 4.21D-09 BMatP= 2.01D-08
 IDIUse=1 WtCom= 1.00D+00 WtEn= 0.00D+00
 Coeff-Com: -0.424D-05-0.511D-05 0.215D-04 0.254D-03 0.408D-03 0.130D-02
 Coeff-Com:  0.201D-02-0.348D-02-0.136D-01 0.190D-01 0.545D-01 0.334D+00
 Coeff-Com:  0.605D+00
 Coeff:     -0.424D-05-0.511D-05 0.215D-04 0.254D-03 0.408D-03 0.130D-02
 Coeff:      0.201D-02-0.348D-02-0.136D-01 0.190D-01 0.545D-01 0.334D+00
 Coeff:      0.605D+00
 Gap=     0.166 Goal=   None    Shift=    0.000
 Gap=     0.166 Goal=   None    Shift=    0.000
 RMSDP=5.61D-07 MaxDP=3.18D-05 DE=-4.53D-09 OVMax= 1.86D-05

 Cycle  14  Pass 1  IDiag  1:
 RMSU=  2.72D-07    CP:  6.37D-01  1.08D+00  1.08D+00  8.68D-01  7.25D-01
                    CP:  7.64D-01  6.40D-01  1.05D+00  1.19D+00  9.99D-01
                    CP:  7.45D-01  9.09D-01  7.53D-01
 E= -677.955643817040     Delta-E=       -0.000000001151 Rises=F Damp=F
 DIIS: error= 2.67D-07 at cycle  14 NSaved=  14.
 NSaved=14 IEnMin=14 EnMin= -677.955643817040     IErMin=14 ErrMin= 2.67D-07
 ErrMax= 2.67D-07  0.00D+00 EMaxC= 1.00D-01 BMatC= 2.04D-10 BMatP= 4.21D-09
 IDIUse=1 WtCom= 1.00D+00 WtEn= 0.00D+00
 Coeff-Com: -0.647D-05-0.719D-06 0.150D-05 0.686D-04 0.201D-03 0.679D-03
 Coeff-Com:  0.166D-02 0.831D-03-0.479D-02-0.806D-02 0.187D-02 0.875D-01
 Coeff-Com:  0.248D+00 0.672D+00
 Coeff:     -0.647D-05-0.719D-06 0.150D-05 0.686D-04 0.201D-03 0.679D-03
 Coeff:      0.166D-02 0.831D-03-0.479D-02-0.806D-02 0.187D-02 0.875D-01
 Coeff:      0.248D+00 0.672D+00
 Gap=     0.166 Goal=   None    Shift=    0.000
 Gap=     0.166 Goal=   None    Shift=    0.000
 RMSDP=1.91D-07 MaxDP=8.35D-06 DE=-1.15D-09 OVMax= 3.36D-06

 Cycle  15  Pass 1  IDiag  1:
 RMSU=  1.10D-07    CP:  6.37D-01  1.08D+00  1.08D+00  8.68D-01  7.25D-01
                    CP:  7.64D-01  6.40D-01  1.05D+00  1.19D+00  1.00D+00
                    CP:  7.51D-01  9.03D-01  7.78D-01  9.80D-01
 E= -677.955643817080     Delta-E=       -0.000000000040 Rises=F Damp=F
 DIIS: error= 1.13D-07 at cycle  15 NSaved=  15.
 NSaved=15 IEnMin=15 EnMin= -677.955643817080     IErMin=15 ErrMin= 1.13D-07
 ErrMax= 1.13D-07  0.00D+00 EMaxC= 1.00D-01 BMatC= 2.74D-11 BMatP= 2.04D-10
 IDIUse=1 WtCom= 1.00D+00 WtEn= 0.00D+00
 Coeff-Com: -0.247D-05-0.499D-06-0.180D-06 0.132D-04 0.708D-04 0.244D-03
 Coeff-Com:  0.695D-03 0.919D-03-0.942D-03-0.670D-02-0.522D-02 0.577D-02
 Coeff-Com:  0.556D-01 0.316D+00 0.633D+00
 Coeff:     -0.247D-05-0.499D-06-0.180D-06 0.132D-04 0.708D-04 0.244D-03
 Coeff:      0.695D-03 0.919D-03-0.942D-03-0.670D-02-0.522D-02 0.577D-02
 Coeff:      0.556D-01 0.316D+00 0.633D+00
 Gap=     0.166 Goal=   None    Shift=    0.000
 Gap=     0.166 Goal=   None    Shift=    0.000
 RMSDP=5.75D-08 MaxDP=4.72D-06 DE=-3.96D-11 OVMax= 8.25D-07

 Cycle  16  Pass 1  IDiag  1:
 RMSU=  3.12D-08    CP:  6.37D-01  1.08D+00  1.08D+00  8.68D-01  7.25D-01
                    CP:  7.64D-01  6.40D-01  1.05D+00  1.19D+00  1.00D+00
                    CP:  7.50D-01  9.06D-01  7.88D-01  1.03D+00  7.65D-01
 E= -677.955643817089     Delta-E=       -0.000000000009 Rises=F Damp=F
 DIIS: error= 3.08D-08 at cycle  16 NSaved=  16.
 NSaved=16 IEnMin=16 EnMin= -677.955643817089     IErMin=16 ErrMin= 3.08D-08
 ErrMax= 3.08D-08  0.00D+00 EMaxC= 1.00D-01 BMatC= 2.49D-12 BMatP= 2.74D-11
 IDIUse=1 WtCom= 1.00D+00 WtEn= 0.00D+00
 Coeff-Com: -0.439D-06-0.363D-07-0.254D-06-0.229D-05 0.702D-05 0.281D-04
 Coeff-Com:  0.968D-04 0.259D-03 0.159D-03-0.186D-02-0.207D-02-0.660D-02
 Coeff-Com: -0.149D-02 0.740D-01 0.299D+00 0.638D+00
 Coeff:     -0.439D-06-0.363D-07-0.254D-06-0.229D-05 0.702D-05 0.281D-04
 Coeff:      0.968D-04 0.259D-03 0.159D-03-0.186D-02-0.207D-02-0.660D-02
 Coeff:     -0.149D-02 0.740D-01 0.299D+00 0.638D+00
 Gap=     0.166 Goal=   None    Shift=    0.000
 Gap=     0.166 Goal=   None    Shift=    0.000
 RMSDP=1.59D-08 MaxDP=6.07D-07 DE=-9.32D-12 OVMax= 2.88D-07

 Cycle  17  Pass 1  IDiag  1:
 RMSU=  9.05D-09    CP:  6.37D-01  1.08D+00  1.08D+00  8.68D-01  7.25D-01
                    CP:  7.64D-01  6.40D-01  1.05D+00  1.19D+00  1.00D+00
                    CP:  7.50D-01  9.06D-01  7.92D-01  1.04D+00  8.06D-01
                    CP:  7.85D-01
 E= -677.955643817100     Delta-E=       -0.000000000011 Rises=F Damp=F
 DIIS: error= 6.40D-09 at cycle  17 NSaved=  17.
 NSaved=17 IEnMin=17 EnMin= -677.955643817100     IErMin=17 ErrMin= 6.40D-09
 ErrMax= 6.40D-09  0.00D+00 EMaxC= 1.00D-01 BMatC= 1.79D-13 BMatP= 2.49D-12
 IDIUse=1 WtCom= 1.00D+00 WtEn= 0.00D+00
 Coeff-Com:  0.845D-08 0.674D-08-0.111D-06-0.138D-05-0.232D-05-0.670D-05
 Coeff-Com: -0.170D-04 0.207D-04 0.158D-03-0.135D-03-0.190D-03-0.253D-02
 Coeff-Com: -0.494D-02-0.102D-02 0.602D-01 0.233D+00 0.715D+00
 Coeff:      0.845D-08 0.674D-08-0.111D-06-0.138D-05-0.232D-05-0.670D-05
 Coeff:     -0.170D-04 0.207D-04 0.158D-03-0.135D-03-0.190D-03-0.253D-02
 Coeff:     -0.494D-02-0.102D-02 0.602D-01 0.233D+00 0.715D+00
 Gap=     0.166 Goal=   None    Shift=    0.000
 Gap=     0.166 Goal=   None    Shift=    0.000
 RMSDP=3.43D-09 MaxDP=1.13D-07 DE=-1.11D-11 OVMax= 8.12D-08

 SCF Done:  E(UB3LYP) =  -677.955643817     A.U. after   17 cycles
            NFock= 17  Conv=0.34D-08     -V/T= 2.0059
 <Sx>= 0.0000 <Sy>= 0.0000 <Sz>= 0.0000 <S**2>=-0.0000 S=-0.0000
 <L.S>= 0.000000000000E+00
 KE= 6.739691166408D+02 PE=-2.925203412945D+03 EE= 8.990150933745D+02
 Annihilation of the first spin contaminant:
 S**2 before annihilation    -0.0000,   after     0.0000
 Leave Link  502 at Sat Aug  8 21:27:21 2020, MaxMem=   524288000 cpu:            2057.2 elap:             294.9
 (Enter /home/ubuntu/g16/l601.exe)
 Copying SCF densities to generalized density rwf, IOpCl= 1 IROHF=0.

 **********************************************************************

            Population analysis using the SCF density.

 **********************************************************************

 Orbital symmetries:
 Alpha Orbitals:
       Occupied  (A) (A) (A) (A) (A) (A) (A) (A) (A) (A) (A) (A)
                 (A) (A) (A) (A) (A) (A) (A) (A) (A) (A) (A) (A)
                 (A) (A) (A) (A) (A) (A) (A) (A) (A) (A) (A) (A)
                 (A) (A) (A) (A) (A) (A) (A)
       Virtual   (A) (A) (A) (A) (A) (A) (A) (A) (A) (A) (A) (A)
                 (A) (A) (A) (A) (A) (A) (A) (A) (A) (A) (A) (A)
                 (A) (A) (A) (A) (A) (A) (A) (A) (A) (A) (A) (A)
                 (A) (A) (A) (A) (A) (A) (A) (A) (A) (A) (A) (A)
                 (A) (A) (A) (A) (A) (A) (A) (A) (A) (A) (A) (A)
                 (A) (A) (A) (A) (A) (A) (A) (A) (A) (A) (A) (A)
                 (A) (A) (A) (A) (A) (A) (A) (A) (A) (A) (A) (A)
                 (A) (A) (A) (A) (A) (A) (A) (A) (A) (A) (A) (A)
                 (A) (A) (A) (A) (A) (A) (A) (A) (A) (A) (A) (A)
                 (A) (A) (A) (A) (A) (A) (A) (A) (A) (A) (A) (A)
                 (A) (A) (A) (A) (A) (A) (A) (A) (A) (A) (A) (A)
                 (A) (A) (A) (A) (A) (A) (A) (A) (A) (A) (A) (A)
                 (A) (A) (A) (A) (A) (A) (A) (A) (A) (A) (A) (A)
                 (A) (A) (A) (A) (A) (A) (A) (A) (A) (A) (A) (A)
                 (A) (A) (A) (A) (A) (A) (A) (A) (A) (A) (A) (A)
                 (A) (A) (A) (A) (A) (A) (A) (A) (A) (A) (A) (A)
                 (A) (A) (A) (A) (A) (A) (A) (A) (A) (A) (A) (A)
                 (A) (A) (A) (A) (A) (A) (A) (A) (A) (A) (A) (A)
                 (A) (A) (A) (A) (A) (A) (A) (A) (A) (A) (A) (A)
                 (A) (A) (A) (A) (A) (A) (A) (A) (A) (A) (A) (A)
                 (A) (A) (A) (A) (A) (A) (A) (A) (A) (A) (A) (A)
                 (A) (A) (A) (A) (A) (A) (A) (A) (A) (A) (A) (A)
                 (A) (A) (A) (A) (A)
 Beta  Orbitals:
       Occupied  (A) (A) (A) (A) (A) (A) (A) (A) (A) (A) (A) (A)
                 (A) (A) (A) (A) (A) (A) (A) (A) (A) (A) (A) (A)
                 (A) (A) (A) (A) (A) (A) (A) (A) (A) (A) (A) (A)
                 (A) (A) (A) (A) (A) (A) (A)
       Virtual   (A) (A) (A) (A) (A) (A) (A) (A) (A) (A) (A) (A)
                 (A) (A) (A) (A) (A) (A) (A) (A) (A) (A) (A) (A)
                 (A) (A) (A) (A) (A) (A) (A) (A) (A) (A) (A) (A)
                 (A) (A) (A) (A) (A) (A) (A) (A) (A) (A) (A) (A)
                 (A) (A) (A) (A) (A) (A) (A) (A) (A) (A) (A) (A)
                 (A) (A) (A) (A) (A) (A) (A) (A) (A) (A) (A) (A)
                 (A) (A) (A) (A) (A) (A) (A) (A) (A) (A) (A) (A)
                 (A) (A) (A) (A) (A) (A) (A) (A) (A) (A) (A) (A)
                 (A) (A) (A) (A) (A) (A) (A) (A) (A) (A) (A) (A)
                 (A) (A) (A) (A) (A) (A) (A) (A) (A) (A) (A) (A)
                 (A) (A) (A) (A) (A) (A) (A) (A) (A) (A) (A) (A)
                 (A) (A) (A) (A) (A) (A) (A) (A) (A) (A) (A) (A)
                 (A) (A) (A) (A) (A) (A) (A) (A) (A) (A) (A) (A)
                 (A) (A) (A) (A) (A) (A) (A) (A) (A) (A) (A) (A)
                 (A) (A) (A) (A) (A) (A) (A) (A) (A) (A) (A) (A)
                 (A) (A) (A) (A) (A) (A) (A) (A) (A) (A) (A) (A)
                 (A) (A) (A) (A) (A) (A) (A) (A) (A) (A) (A) (A)
                 (A) (A) (A) (A) (A) (A) (A) (A) (A) (A) (A) (A)
                 (A) (A) (A) (A) (A) (A) (A) (A) (A) (A) (A) (A)
                 (A) (A) (A) (A) (A) (A) (A) (A) (A) (A) (A) (A)
                 (A) (A) (A) (A) (A) (A) (A) (A) (A) (A) (A) (A)
                 (A) (A) (A) (A) (A) (A) (A) (A) (A) (A) (A) (A)
                 (A) (A) (A) (A) (A)
 The electronic state is 1-A.
     Natural Orbital Coefficients:
                           1         2         3         4         5
     Eigenvalues --     2.00000   2.00000   2.00000   2.00000   2.00000
   1 1   C  1S         -0.00581  -0.04080  -0.02657  -0.01381   0.03199
   2        2S         -0.04482   0.02476   0.04675  -0.03523  -0.03285
   3        3S          0.09234  -0.05536   0.13165  -0.18373  -0.07206
   4        4S          1.27780  -0.05574  -0.01295   0.12621   0.40803
   5        5PX         0.25299  -0.05902  -0.03049   0.09736   0.08456
   6        5PY        -0.11661   0.00513  -0.13640   0.17927  -0.10385
   7        5PZ        -0.02135   0.00413  -0.01464  -0.01235  -0.05645
   8        6PX        -0.17938   0.21153   0.01386   0.09334  -0.19329
   9        6PY        -0.04606   0.27140  -0.02940   0.45144  -0.14333
  10        6PZ        -0.01092   0.00244  -0.00853  -0.00661  -0.03052
  11        7PX         0.27260   0.01496  -0.03782   0.05295   0.02469
  12        7PY         0.04197   0.06108  -0.11336   0.05858  -0.10456
  13        7PZ        -0.00037   0.00004  -0.00118  -0.00038  -0.00159
  14        8D 0       -0.00284  -0.00119  -0.00174  -0.00044  -0.00267
  15        8D+1       -0.00033   0.00001  -0.00084  -0.00081  -0.00177
  16        8D-1        0.00101  -0.00011  -0.00061  -0.00087   0.00057
  17        8D+2       -0.01293   0.00149  -0.00378   0.00550  -0.00486
  18        8D-2        0.00555  -0.00245  -0.01002   0.00343   0.00228
  19        9D 0        0.00103  -0.01003  -0.00050  -0.00478  -0.00015
  20        9D+1        0.00195  -0.00002  -0.00108   0.00034   0.00133
  21        9D-1        0.00088   0.00001  -0.00049   0.00012   0.00027
  22        9D+2        0.04125   0.06811   0.01461   0.08485  -0.01850
  23        9D-2       -0.06467   0.02573   0.03128   0.08015  -0.02723
  24 2   C  1S         -0.05423   0.03369  -0.00297  -0.07323  -0.10173
  25        2S          0.09185  -0.01289  -0.00923   0.07371   0.10014
  26        3S          0.23853  -0.16391  -0.09882   0.17673   0.27643
  27        4S         -0.83827   0.42178   0.25252  -0.16719  -0.55337
  28        5PX        -0.04865   0.03735   0.10155  -0.14728   0.10531
  29        5PY         0.01034  -0.00498   0.02720   0.00805  -0.02377
  30        5PZ        -0.00480   0.00046  -0.01860  -0.01917  -0.03624
  31        6PX        -0.03781   0.14042   0.00182   0.40066  -0.04878
  32        6PY        -0.16684   0.05591   0.00622  -0.01083  -0.14664
  33        6PZ        -0.00338   0.00046  -0.00952  -0.01103  -0.02147
  34        7PX         0.16184   0.10065  -0.05601   0.03249  -0.10311
  35        7PY         0.18122  -0.05656  -0.03347   0.01272   0.08096
  36        7PZ        -0.00016   0.00025  -0.00009  -0.00085  -0.00176
  37        8D 0       -0.00163  -0.00084  -0.00073  -0.00132  -0.00089
  38        8D+1        0.00164  -0.00043   0.00006   0.00005   0.00276
  39        8D-1        0.00029   0.00001   0.00081   0.00066   0.00169
  40        8D+2       -0.01780   0.00758   0.00711  -0.00168  -0.00622
  41        8D-2        0.00390   0.00146   0.00569  -0.00048  -0.00380
  42        9D 0        0.00226   0.00023  -0.00171   0.00209   0.00008
  43        9D+1        0.00131  -0.00004  -0.00046   0.00050   0.00047
  44        9D-1        0.00001  -0.00016   0.00021   0.00044   0.00105
  45        9D+2        0.03462  -0.03441  -0.03407   0.06597   0.01603
  46        9D-2       -0.01676  -0.07004  -0.01074  -0.11472   0.05059
  47 3   C  1S         -0.02232  -0.05615  -0.04645  -0.00222  -0.05468
  48        2S          0.05618   0.06996   0.09119   0.01780   0.09172
  49        3S          0.28487   0.52567   0.27044   0.03033  -0.01971
  50        4S         -1.93954  -0.29192  -0.14830  -0.03829  -0.21354
  51        5PX         0.09092  -0.00753   0.10447   0.14990  -0.05613
  52        5PY         0.14080  -0.05447   0.11771  -0.18123   0.03574
  53        5PZ        -0.02267   0.00203   0.00361   0.00709  -0.02811
  54        6PX         0.24546   0.38326   0.13756  -0.22366  -0.04632
  55        6PY        -0.00774   0.14461  -0.03316   0.42230  -0.04653
  56        6PZ        -0.01030   0.00100   0.00155   0.00464  -0.01305
  57        7PX        -0.34308  -0.15203   0.06853  -0.05820   0.11259
  58        7PY        -0.05516  -0.06150  -0.04629  -0.01863  -0.04101
  59        7PZ        -0.00187   0.00043   0.00117   0.00020  -0.00210
  60        8D 0        0.00412  -0.00530   0.00439  -0.00069  -0.00144
  61        8D+1        0.00235  -0.00036  -0.00074   0.00126   0.00266
  62        8D-1       -0.00031   0.00033  -0.00180  -0.00086  -0.00346
  63        8D+2        0.00145   0.00043  -0.01079   0.01158   0.00552
  64        8D-2        0.01397   0.00178  -0.02255  -0.00598   0.00263
  65        9D 0        0.02231   0.02538   0.00501   0.00213  -0.00305
  66        9D+1       -0.00261  -0.00055   0.00216  -0.00034   0.00002
  67        9D-1       -0.00185   0.00018  -0.00010  -0.00054  -0.00305
  68        9D+2        0.03501  -0.06589   0.04332  -0.18285   0.02403
  69        9D-2       -0.01657  -0.31498   0.01628   0.05587   0.11195
  70 4   C  1S         -0.02296  -0.01866  -0.03275  -0.02360   0.00712
  71        2S         -0.06460   0.04616   0.03288   0.03248  -0.02786
  72        3S         -0.15459  -0.09616  -0.12900   0.36945  -0.13313
  73        4S          0.57192  -0.53194  -0.45262   0.08644   0.53104
  74        5PX        -0.05162   0.04952   0.07422   0.05773  -0.17382
  75        5PY        -0.03216   0.11283   0.24374  -0.15006   0.04574
  76        5PZ         0.01630  -0.00542  -0.01183  -0.01020   0.00905
  77        6PX         0.19623   0.08736  -0.09003   0.28196   0.03035
  78        6PY         0.04821  -0.02341   0.08739  -0.64808   0.14650
  79        6PZ         0.00801  -0.00358  -0.00612  -0.00522   0.00631
  80        7PX         0.05239   0.13511  -0.00965   0.02267  -0.13487
  81        7PY        -0.21762  -0.05155   0.09953  -0.02968   0.07392
  82        7PZ         0.00017  -0.00042  -0.00046  -0.00009   0.00131
  83        8D 0       -0.00297   0.00064   0.00125  -0.00180  -0.00077
  84        8D+1        0.00039  -0.00010   0.00091   0.00100   0.00203
  85        8D-1       -0.00151   0.00055  -0.00022  -0.00080  -0.00309
  86        8D+2       -0.00149   0.00561   0.01241  -0.00273   0.00630
  87        8D-2       -0.00284   0.00177  -0.00428  -0.00496  -0.01067
  88        9D 0       -0.00799  -0.00323   0.00026   0.00318   0.00104
  89        9D+1        0.00079  -0.00017   0.00012   0.00065   0.00043
  90        9D-1       -0.00069   0.00042   0.00046  -0.00084  -0.00043
  91        9D+2        0.00366  -0.04981  -0.04945  -0.16503   0.01006
  92        9D-2       -0.02712  -0.08678  -0.06403   0.08564   0.04546
  93 5   C  1S         -0.00531  -0.03477  -0.00618   0.03341  -0.00215
  94        2S         -0.08057   0.01641  -0.04214   0.02609  -0.00976
  95        3S          0.11874  -0.05551  -0.16445  -0.13698   0.13628
  96        4S          1.08271  -0.21057  -0.09995  -0.16907   0.15767
  97        5PX         0.02146  -0.06524  -0.14225  -0.26234  -0.00760
  98        5PY         0.24479  -0.03346  -0.06077  -0.06053  -0.02648
  99        5PZ         0.01228  -0.00565   0.00572   0.01691   0.03225
 100        6PX         0.28255   0.51475   0.01560  -0.49655  -0.06423
 101        6PY        -0.14929   0.08678  -0.01640  -0.14962   0.04973
 102        6PZ         0.00842  -0.00143   0.00278   0.00937   0.01676
 103        7PX        -0.16962   0.00790   0.02808   0.00031   0.01257
 104        7PY         0.17842  -0.03103  -0.03231  -0.03528   0.05736
 105        7PZ         0.00121  -0.00036   0.00008   0.00094   0.00262
 106        8D 0       -0.00135  -0.00061   0.00159  -0.00043  -0.00072
 107        8D+1        0.00203  -0.00047  -0.00021  -0.00007   0.00300
 108        8D-1        0.00051  -0.00031  -0.00003   0.00043   0.00102
 109        8D+2        0.00707   0.00498   0.00646  -0.00030   0.00537
 110        8D-2       -0.00122  -0.00490  -0.01852  -0.00832  -0.00400
 111        9D 0        0.00103  -0.00484   0.00107  -0.00205   0.00324
 112        9D+1       -0.00004   0.00009   0.00075  -0.00090   0.00037
 113        9D-1        0.00111   0.00068  -0.00105  -0.00015  -0.00117
 114        9D+2       -0.07395  -0.04228  -0.04081   0.08825  -0.00397
 115        9D-2        0.04125   0.12773   0.08900  -0.12020   0.02361
 116 6   C  1S         -0.02628   0.06170   0.04238  -0.01717  -0.00806
 117        2S          0.05350  -0.06046  -0.10460  -0.05323  -0.01904
 118        3S          0.04794  -0.47601  -0.22575  -0.15791   0.07134
 119        4S         -0.74872   0.34854   0.50445   0.03576  -0.20222
 120        5PX        -0.05450   0.05298   0.24987   0.07264   0.05869
 121        5PY        -0.03606  -0.03351  -0.11111   0.23231  -0.06951
 122        5PZ         0.02729  -0.01022  -0.00189   0.00849   0.04668
 123        6PX         0.08340   0.21331   0.01828  -0.09081   0.03968
 124        6PY         0.04712   0.08127  -0.00624  -0.55698   0.08553
 125        6PZ         0.01411  -0.00542   0.00098   0.00440   0.02665
 126        7PX        -0.18410  -0.24851   0.05870  -0.15483   0.16314
 127        7PY        -0.07921   0.05542   0.12824  -0.04516  -0.04383
 128        7PZ         0.00183  -0.00015  -0.00013   0.00004   0.00224
 129        8D 0       -0.00026   0.00032  -0.00061  -0.00018  -0.00103
 130        8D+1       -0.00035  -0.00003  -0.00052  -0.00031  -0.00085
 131        8D-1        0.00027   0.00004  -0.00059  -0.00121  -0.00097
 132        8D+2        0.01347  -0.00032   0.00779  -0.00081   0.00859
 133        8D-2       -0.00459   0.00095  -0.00583  -0.00721  -0.01142
 134        9D 0        0.00805  -0.01358  -0.01795  -0.00211  -0.00180
 135        9D+1       -0.00141   0.00111   0.00043  -0.00067  -0.00372
 136        9D-1        0.00056   0.00102   0.00001  -0.00132  -0.00119
 137        9D+2        0.03569   0.03710  -0.11470   0.31188  -0.12647
 138        9D-2       -0.15344  -0.15488   0.06046   0.20317  -0.02801
 139 7   N  1S         -0.07212  -0.17631   0.07859  -0.00650  -0.00769
 140        2S          0.08060   0.34314  -0.14399   0.01209  -0.06708
 141        3S          0.04501   0.30377  -0.13838   0.04486  -0.18815
 142        4S          0.20555  -0.15387   0.05299  -0.00535   0.08843
 143        5PX        -0.12778  -0.13832  -0.08322  -0.16289   0.02672
 144        5PY        -0.12342  -0.11244  -0.03686   0.19159   0.18675
 145        5PZ        -0.03120  -0.00046   0.02795  -0.01288  -0.00373
 146        6PX         0.05843   0.25952  -0.04154  -0.10944  -0.03416
 147        6PY         0.02764   0.18795  -0.02627   0.13898   0.07056
 148        6PZ        -0.01789  -0.00011   0.01534  -0.00636  -0.00322
 149        7PX         0.24694   0.23941   0.03490   0.00767  -0.07610
 150        7PY         0.18142   0.16541   0.01380   0.04776  -0.05250
 151        7PZ        -0.00130  -0.00002   0.00074  -0.00020  -0.00059
 152        8D 0       -0.00002  -0.01412   0.00262  -0.00010  -0.00284
 153        8D+1        0.00004   0.00018  -0.00092   0.00119  -0.00137
 154        8D-1       -0.00008   0.00018  -0.00076   0.00078  -0.00134
 155        8D+2       -0.00311   0.00731  -0.00048   0.02244   0.00619
 156        8D-2        0.00347   0.01885  -0.00440  -0.00716   0.00443
 157        9D 0        0.00400   0.04858  -0.00702   0.00130  -0.01796
 158        9D+1       -0.00205   0.00021   0.00014   0.00085  -0.00287
 159        9D-1       -0.00184   0.00013   0.00007   0.00043  -0.00254
 160        9D+2       -0.01087  -0.01562  -0.00304   0.02997   0.00549
 161        9D-2       -0.01120  -0.05478   0.00686  -0.00852   0.02049
 162 8   N  1S          0.03043  -0.08004   0.09514   0.01871  -0.13923
 163        2S         -0.04066   0.23085  -0.14367  -0.04906   0.25743
 164        3S         -0.03660   0.47387  -0.16951  -0.07521   0.35427
 165        4S          0.22660   0.37729   0.01191   0.01997  -0.05356
 166        5PX         0.20620   0.19893   0.04901  -0.11880  -0.30568
 167        5PY         0.11052   0.15385   0.06073   0.24781  -0.10161
 168        5PZ        -0.01311  -0.00262   0.02141  -0.01781   0.01384
 169        6PX         0.10809   0.17592   0.02251  -0.04761  -0.10921
 170        6PY         0.06310   0.13588   0.03522   0.08798  -0.02904
 171        6PZ        -0.00498  -0.00147   0.00910  -0.00874   0.00694
 172        7PX         0.01221   0.03070  -0.00150   0.00491  -0.00619
 173        7PY         0.00721   0.02697   0.00500  -0.00312  -0.00126
 174        7PZ         0.00114  -0.00021  -0.00014  -0.00066   0.00154
 175        8D 0       -0.00847  -0.01328  -0.00038  -0.00158   0.00959
 176        8D+1       -0.00169  -0.00009   0.00177  -0.00103   0.00021
 177        8D-1       -0.00126  -0.00007   0.00131  -0.00077   0.00015
 178        8D+2        0.00663   0.00660  -0.00156  -0.02024  -0.01503
 179        8D-2        0.01430   0.02107   0.00143   0.00910  -0.01352
 180        9D 0       -0.00447  -0.01565   0.00182   0.00070  -0.00323
 181        9D+1       -0.00062  -0.00004   0.00036  -0.00017  -0.00033
 182        9D-1       -0.00048   0.00001   0.00023  -0.00016  -0.00037
 183        9D+2        0.00202   0.00574  -0.00252   0.00445   0.00056
 184        9D-2        0.00868   0.02011   0.00051  -0.00361   0.00695
 185 9   H  1S          0.08495  -0.02731  -0.00336   0.06330   0.03741
 186        2S          0.24577  -0.13695  -0.07289   0.10915   0.15382
 187        3S         -0.03594   0.01772   0.00535  -0.00269  -0.02550
 188        4PX        -0.00073   0.00084   0.00233  -0.00246   0.00230
 189        4PY        -0.00443   0.00045  -0.00086  -0.00506  -0.00353
 190        4PZ        -0.00015   0.00003  -0.00065  -0.00068  -0.00126
 191        5PX         0.01607   0.00711  -0.00518   0.02144  -0.00979
 192        5PY        -0.05778   0.03109   0.01411  -0.01874  -0.03760
 193        5PZ         0.00003   0.00011  -0.00041  -0.00045  -0.00083
 194 10  H  1S         -0.07310   0.10874   0.16844  -0.01926  -0.11180
 195        2S         -0.12628   0.20122   0.23198  -0.00748  -0.24772
 196        3S          0.01669  -0.00337  -0.00705   0.00685  -0.00151
 197        4PX         0.00432  -0.00608  -0.00939   0.00150   0.00229
 198        4PY         0.00357  -0.00232  -0.00236  -0.00294   0.00558
 199        4PZ         0.00055  -0.00018  -0.00039  -0.00035   0.00029
 200        5PX         0.01874  -0.03101  -0.02723   0.01301   0.05233
 201        5PY         0.02261  -0.02744  -0.04215  -0.01483   0.02577
 202        5PZ         0.00033  -0.00003  -0.00030  -0.00009  -0.00006
 203 11  H  1S         -0.22820   0.02314   0.00289   0.04619   0.01739
 204        2S         -0.43192   0.00134  -0.03282   0.06574   0.03765
 205        3S          0.03056  -0.00220  -0.00191  -0.01395   0.00897
 206        4PX         0.00322  -0.00223  -0.00251  -0.00540   0.00126
 207        4PY        -0.01280   0.00231  -0.00074   0.00191   0.00079
 208        4PZ         0.00045  -0.00021   0.00020   0.00062   0.00117
 209        5PX         0.01032   0.01974   0.03729  -0.00389   0.01209
 210        5PY        -0.09935   0.00208  -0.00535   0.00865   0.00884
 211        5PZ         0.00046   0.00017  -0.00010   0.00025   0.00009
 212 12  H  1S         -0.25032   0.06306   0.01158  -0.03531  -0.11252
 213        2S         -0.47541   0.06319   0.02253  -0.06579  -0.17073
 214        3S          0.04609   0.00455   0.01556   0.00459   0.01119
 215        4PX        -0.01105   0.00328  -0.00013  -0.00143  -0.00650
 216        4PY         0.00473  -0.00254  -0.00322   0.00444   0.00133
 217        4PZ        -0.00075   0.00015  -0.00052  -0.00045  -0.00199
 218        5PX        -0.10071   0.02168   0.00966  -0.01052  -0.03567
 219        5PY         0.04619  -0.00238   0.01383   0.00811   0.01610
 220        5PZ         0.00020   0.00012  -0.00050  -0.00018  -0.00055
 221 13  C  1S         -0.03698   0.00956  -0.05332   0.03448  -0.00966
 222        2S          0.03386   0.00353   0.05682   0.03397   0.05839
 223        3S         -0.13203  -0.14967   0.23373  -0.12486   0.10062
 224        4S          0.24331   0.17270  -0.10685   0.12183  -0.11804
 225        5PX        -0.00686  -0.04042  -0.22868   0.03404  -0.10131
 226        5PY         0.02823  -0.01386   0.07079   0.01069   0.02542
 227        5PZ         0.01093  -0.01030  -0.01830   0.01208   0.01740
 228        6PX         0.07935   0.08167  -0.09182   0.04084  -0.01218
 229        6PY        -0.00887  -0.01191   0.05690  -0.13929   0.07103
 230        6PZ         0.00327  -0.00453  -0.00376   0.00271   0.01040
 231        7PX        -0.01587  -0.01515  -0.00141  -0.00026   0.01419
 232        7PY        -0.00771  -0.00592  -0.01677   0.01208   0.00906
 233        7PZ        -0.00069   0.00028  -0.00025   0.00004  -0.00187
 234        8D 0        0.00752  -0.00009   0.00289   0.01067   0.00729
 235        8D+1        0.00038   0.00006  -0.00269   0.00089  -0.00133
 236        8D-1        0.00283  -0.00024  -0.00149   0.00116   0.00099
 237        8D+2        0.00465  -0.00211   0.00335  -0.01628   0.00010
 238        8D-2        0.00491   0.00148  -0.00215  -0.00271   0.00360
 239        9D 0       -0.00573   0.00864   0.01800   0.00699   0.01157
 240        9D+1       -0.00186   0.00019   0.00149  -0.00079  -0.00154
 241        9D-1        0.00060  -0.00096   0.00020   0.00015   0.00283
 242        9D+2       -0.02346  -0.01354   0.01183   0.01253  -0.01114
 243        9D-2        0.00606   0.00481  -0.00760   0.04483  -0.01657
 244 14  F  1S          0.02434  -0.01874  -0.01521   0.01655   0.02096
 245        2S         -0.01174   0.00677   0.01491   0.00551  -0.00822
 246        3S         -0.01135   0.00862   0.00571   0.00586  -0.01302
 247        4S         -0.00214  -0.02983  -0.01898  -0.02003   0.00873
 248        5PX        -0.04206  -0.01193  -0.06138  -0.10908  -0.07243
 249        5PY        -0.02824  -0.00287   0.01536   0.01142   0.00046
 250        5PZ         0.00413  -0.02753  -0.07624  -0.02477  -0.03600
 251        6PX        -0.02732  -0.00736  -0.03686  -0.06692  -0.04813
 252        6PY        -0.01796  -0.00264   0.01109   0.00818   0.00126
 253        6PZ         0.00066  -0.01613  -0.04795  -0.01557  -0.02201
 254        7PX        -0.00584   0.00953   0.01564  -0.00804  -0.00627
 255        7PY        -0.00210   0.00292  -0.00196   0.00679  -0.00049
 256        7PZ        -0.00506  -0.01034  -0.00670  -0.01148   0.00179
 257        8D 0        0.00010  -0.00092  -0.00264  -0.00050  -0.00112
 258        8D+1       -0.00070   0.00009  -0.00101  -0.00153  -0.00081
 259        8D-1       -0.00023   0.00031   0.00185   0.00002   0.00073
 260        8D+2        0.00050   0.00017   0.00152   0.00074   0.00093
 261        8D-2        0.00058   0.00016   0.00014   0.00033   0.00057
 262        9D 0       -0.00051  -0.00088  -0.00396   0.00009  -0.00269
 263        9D+1       -0.00173  -0.00099  -0.00478  -0.00270  -0.00382
 264        9D-1       -0.00056  -0.00055   0.00172   0.00065   0.00025
 265        9D+2        0.00020   0.00070   0.00576   0.00149   0.00347
 266        9D-2        0.00025   0.00063   0.00054   0.00021   0.00040
 267 15  F  1S          0.02273  -0.02495   0.01389   0.09221  -0.12422
 268        2S         -0.03740   0.00275  -0.02651  -0.01634   0.01502
 269        3S         -0.04293   0.00445  -0.02597  -0.02734   0.02685
 270        4S         -0.00868  -0.02087   0.01480  -0.02128   0.01623
 271        5PX        -0.05805  -0.04715  -0.11693  -0.00979  -0.12554
 272        5PY        -0.01793   0.01281  -0.04311   0.05221  -0.01595
 273        5PZ        -0.01473  -0.00731   0.00329   0.00339  -0.00595
 274        6PX        -0.03800  -0.03068  -0.07294  -0.00969  -0.08180
 275        6PY        -0.00745   0.00668  -0.02713   0.03040  -0.00762
 276        6PZ        -0.00941  -0.00455   0.00244   0.00208  -0.00409
 277        7PX        -0.02475  -0.00286   0.00603   0.00605  -0.00798
 278        7PY        -0.00546  -0.00355  -0.00152   0.00493  -0.00195
 279        7PZ        -0.00146  -0.00080   0.00103   0.00020  -0.00019
 280        8D 0        0.00041  -0.00014   0.00080  -0.00003  -0.00011
 281        8D+1       -0.00002   0.00001  -0.00004  -0.00001  -0.00005
 282        8D-1       -0.00012  -0.00022  -0.00016   0.00015   0.00016
 283        8D+2        0.00028  -0.00035   0.00083  -0.00115  -0.00033
 284        8D-2       -0.00100  -0.00105  -0.00388   0.00051  -0.00269
 285        9D 0       -0.00032  -0.00046  -0.00141  -0.00122  -0.00093
 286        9D+1       -0.00001   0.00012  -0.00002  -0.00015  -0.00011
 287        9D-1       -0.00022  -0.00039  -0.00005   0.00034   0.00008
 288        9D+2       -0.00159  -0.00002   0.00055  -0.00069  -0.00041
 289        9D-2       -0.00119  -0.00251  -0.00904  -0.00117  -0.00713
 290 16  F  1S          0.00027  -0.03787   0.00695  -0.01469   0.02375
 291        2S          0.00547   0.01772   0.01491   0.00251  -0.02333
 292        3S          0.00538   0.02505   0.00922   0.00083  -0.03706
 293        4S         -0.00476  -0.02317  -0.01423  -0.02408  -0.00446
 294        5PX        -0.04353   0.00451  -0.04425  -0.11888  -0.08179
 295        5PY        -0.01771   0.00275   0.03541   0.01477  -0.02292
 296        5PZ        -0.02837   0.03480   0.10616   0.00118   0.02418
 297        6PX        -0.02597   0.00127  -0.02884  -0.07126  -0.05011
 298        6PY        -0.01093   0.00016   0.02226   0.01134  -0.01319
 299        6PZ        -0.01441   0.01862   0.06310   0.00280   0.01751
 300        7PX        -0.00274   0.00932   0.01464  -0.00701  -0.00219
 301        7PY        -0.00116   0.00289  -0.00040   0.00776  -0.00265
 302        7PZ         0.00428   0.00890   0.00817   0.01046   0.00202
 303        8D 0        0.00041  -0.00089  -0.00292  -0.00026  -0.00117
 304        8D+1        0.00124  -0.00046   0.00024   0.00205   0.00127
 305        8D-1        0.00036  -0.00049  -0.00241   0.00019  -0.00033
 306        8D+2        0.00078   0.00002   0.00138   0.00090   0.00115
 307        8D-2        0.00061  -0.00005  -0.00025   0.00050   0.00093
 308        9D 0       -0.00001  -0.00041  -0.00368   0.00019  -0.00312
 309        9D+1        0.00178   0.00094   0.00485   0.00279   0.00359
 310        9D-1        0.00068   0.00065  -0.00189  -0.00087   0.00047
 311        9D+2        0.00024   0.00043   0.00575   0.00164   0.00351
 312        9D-2       -0.00019   0.00051   0.00033   0.00003   0.00071
                           6         7         8         9        10
     Eigenvalues --     2.00000   2.00000   2.00000   2.00000   2.00000
   1 1   C  1S          0.00318  -0.00826  -0.10665   0.07680  -0.04583
   2        2S          0.02052  -0.02375   0.07723  -0.08500  -0.02341
   3        3S          0.03023  -0.01352   0.05411  -0.28203   0.03439
   4        4S          0.09319  -0.01176   0.08147   0.07003  -0.12425
   5        5PX         0.02174   0.00941  -0.04745  -0.16615  -0.04449
   6        5PY         0.05143  -0.08759   0.00492  -0.01877   0.03495
   7        5PZ        -0.04023   0.00206   0.01881  -0.13090   0.05947
   8        6PX         0.03507  -0.03172  -0.01819   0.00935   0.03387
   9        6PY         0.06917  -0.04343  -0.13847   0.16751   0.01823
  10        6PZ        -0.01972   0.00021   0.01642  -0.05737   0.02970
  11        7PX        -0.00100  -0.04295   0.09317  -0.00517   0.03927
  12        7PY        -0.10671  -0.01832   0.11193  -0.07367   0.09606
  13        7PZ        -0.00108   0.00073   0.00230   0.00106   0.00055
  14        8D 0       -0.00133   0.00155  -0.00269   0.00065  -0.00017
  15        8D+1       -0.00161   0.00060   0.00080  -0.00350   0.00293
  16        8D-1        0.00008   0.00018   0.00196   0.00582   0.00242
  17        8D+2        0.00537  -0.00419  -0.00814   0.00003  -0.00042
  18        8D-2       -0.00019  -0.00139   0.00203  -0.00754   0.00113
  19        9D 0       -0.00076   0.00186   0.00205  -0.00475  -0.00138
  20        9D+1        0.00188   0.00109   0.00526   0.01390  -0.00420
  21        9D-1       -0.00051   0.00049   0.00115   0.00131   0.00103
  22        9D+2        0.00373   0.01332  -0.02295   0.04776  -0.01195
  23        9D-2        0.01278  -0.02000  -0.00556   0.05651   0.02580
  24 2   C  1S         -0.04566   0.09609  -0.10967   0.00162  -0.04967
  25        2S          0.05200  -0.06620   0.07012  -0.00365  -0.01443
  26        3S          0.10150  -0.08149  -0.04792  -0.10380   0.00883
  27        4S         -0.30705   0.12306  -0.05856  -0.23379  -0.01249
  28        5PX         0.01615   0.01183  -0.06811   0.13382   0.00393
  29        5PY        -0.06403  -0.00471   0.17667   0.13890   0.01621
  30        5PZ        -0.03310   0.01090   0.02400  -0.05720   0.06856
  31        6PX         0.09708  -0.06115  -0.12126   0.14132   0.08310
  32        6PY        -0.03061   0.03799   0.00339  -0.00284  -0.01333
  33        6PZ        -0.02017   0.00436   0.01192  -0.04272   0.04363
  34        7PX        -0.14103  -0.00149   0.12915  -0.08644   0.08052
  35        7PY         0.04556  -0.02009   0.00665   0.01693   0.00101
  36        7PZ        -0.00106  -0.00084   0.00161  -0.00481   0.00402
  37        8D 0       -0.00041   0.00237  -0.00414   0.00053  -0.00012
  38        8D+1        0.00142   0.00093  -0.00045   0.00730  -0.00181
  39        8D-1        0.00150  -0.00066  -0.00087   0.00336  -0.00228
  40        8D+2        0.00147  -0.00483   0.00338  -0.00232  -0.00172
  41        8D-2       -0.00134   0.00081   0.00665  -0.01422  -0.00476
  42        9D 0        0.00413  -0.00437  -0.00023  -0.00319   0.00307
  43        9D+1       -0.00002   0.00053   0.00238   0.00265  -0.00060
  44        9D-1        0.00081  -0.00025  -0.00063   0.00405  -0.00101
  45        9D+2       -0.00765  -0.00041   0.05788   0.02988  -0.00271
  46        9D-2       -0.02669   0.02596   0.02794   0.00219  -0.01755
  47 3   C  1S         -0.10460  -0.13394  -0.08967  -0.07615  -0.19255
  48        2S          0.05310  -0.03701  -0.01491   0.04782   0.05324
  49        3S          0.14272  -0.08119  -0.04558   0.19744   0.19565
  50        4S         -0.12946   0.12657  -0.28166  -0.08289   0.03266
  51        5PX         0.07272  -0.05150  -0.01031   0.10668  -0.02342
  52        5PY        -0.08734   0.08893   0.09393  -0.08350  -0.10208
  53        5PZ        -0.01919   0.00167  -0.03271  -0.15035  -0.00913
  54        6PX         0.07335  -0.03787   0.02305  -0.05423   0.02913
  55        6PY         0.02791   0.03718  -0.13584   0.17315  -0.11161
  56        6PZ        -0.00589  -0.00070  -0.00722  -0.05568  -0.01203
  57        7PX         0.08947   0.05906  -0.20278   0.07298  -0.06387
  58        7PY        -0.02480  -0.04611   0.08382  -0.03702   0.14654
  59        7PZ        -0.00131  -0.00180  -0.00296  -0.01312   0.00313
  60        8D 0       -0.00045   0.00083   0.00262  -0.00128  -0.00383
  61        8D+1        0.00295   0.00196   0.00434   0.01519  -0.00915
  62        8D-1       -0.00163   0.00039   0.00595   0.00084   0.00214
  63        8D+2       -0.00544  -0.00153   0.00438   0.00472  -0.00264
  64        8D-2        0.00084  -0.00507  -0.00527  -0.01272   0.01449
  65        9D 0        0.00101  -0.00030  -0.00532   0.00247  -0.00130
  66        9D+1       -0.00186  -0.00143  -0.01018  -0.01779   0.00502
  67        9D-1       -0.00497   0.00011  -0.00548  -0.02114   0.00890
  68        9D+2        0.01296   0.01284   0.00202  -0.06435   0.00880
  69        9D-2       -0.00418  -0.00120   0.00002  -0.01685   0.00712
  70 4   C  1S         -0.02712  -0.02840  -0.01719  -0.01040   0.05299
  71        2S          0.01249  -0.07754   0.07795   0.02226   0.01231
  72        3S          0.07672  -0.17203   0.04536  -0.04960   0.20153
  73        4S          0.35438   0.02691  -0.31368   0.28246  -0.03271
  74        5PX        -0.06397  -0.02253   0.18198  -0.08404  -0.02450
  75        5PY        -0.02668  -0.00832   0.10574  -0.03060  -0.06299
  76        5PZ        -0.00561   0.02153   0.00742   0.04123   0.01533
  77        6PX         0.06018  -0.06377  -0.11840   0.13292   0.11445
  78        6PY        -0.03428   0.15852  -0.07913   0.01373  -0.20477
  79        6PZ        -0.00369   0.01002   0.00163   0.02742   0.01344
  80        7PX        -0.17536   0.04918   0.07605  -0.08833   0.04254
  81        7PY         0.08777   0.00243  -0.08183   0.05829  -0.06043
  82        7PZ        -0.00048   0.00148  -0.00256   0.00233  -0.00008
  83        8D 0       -0.00175   0.00361  -0.00305  -0.00048   0.00000
  84        8D+1        0.00171  -0.00052  -0.00108   0.00354  -0.00343
  85        8D-1       -0.00162  -0.00121   0.00117  -0.00671   0.00412
  86        8D+2        0.00224   0.00016  -0.00299  -0.00949  -0.00293
  87        8D-2       -0.01322   0.00460   0.00842  -0.00725   0.00035
  88        9D 0        0.00420  -0.00046  -0.00239   0.00269  -0.00288
  89        9D+1       -0.00038  -0.00018   0.00086  -0.00148   0.00037
  90        9D-1        0.00100  -0.00001  -0.00113  -0.00189  -0.00196
  91        9D+2       -0.03744   0.06208  -0.00707   0.00388  -0.03587
  92        9D-2        0.03244   0.03578  -0.05022  -0.00399  -0.03273
  93 5   C  1S          0.00593  -0.15330  -0.06452  -0.06814  -0.01499
  94        2S         -0.04227   0.05087  -0.02668   0.14848  -0.10843
  95        3S         -0.31547   0.21239  -0.04541   0.39344  -0.02319
  96        4S          0.31474  -0.37727   0.45905  -0.04978   0.16873
  97        5PX        -0.13116   0.08116   0.07563  -0.05815  -0.08308
  98        5PY         0.02326  -0.11907   0.11881   0.05072   0.11768
  99        5PZ         0.02175   0.01900  -0.02483   0.04078  -0.08530
 100        6PX        -0.10334   0.07846   0.02137   0.03480   0.11210
 101        6PY        -0.21539   0.19055  -0.01842   0.12099  -0.08988
 102        6PZ         0.01495   0.01188  -0.00864   0.02603  -0.05492
 103        7PX         0.00199   0.00091   0.03844  -0.01559  -0.12631
 104        7PY         0.03703  -0.00367   0.01387   0.00701  -0.04125
 105        7PZ         0.00132   0.00188  -0.00120   0.00393  -0.00645
 106        8D 0       -0.00144  -0.00008   0.00281  -0.00577   0.00006
 107        8D+1        0.00155   0.00091   0.00078   0.01048  -0.00137
 108        8D-1        0.00030   0.00105  -0.00110   0.00061  -0.00231
 109        8D+2        0.01362  -0.01008  -0.00269   0.00246   0.00325
 110        8D-2       -0.00515   0.00018   0.00324   0.00006  -0.00264
 111        9D 0       -0.00021  -0.00268   0.00121   0.00470  -0.00307
 112        9D+1        0.00272  -0.00087   0.00133   0.00556  -0.00276
 113        9D-1        0.00062   0.00085   0.00519   0.00474  -0.00217
 114        9D+2        0.02296   0.02981  -0.09327   0.01808  -0.04565
 115        9D-2        0.00102   0.03783  -0.03846   0.01833   0.00525
 116 6   C  1S         -0.03801   0.07349  -0.02725   0.00178   0.05623
 117        2S          0.10560  -0.06915  -0.01796   0.06570  -0.05531
 118        3S          0.12865  -0.04328  -0.04158   0.00999  -0.12561
 119        4S         -0.16575   0.14645  -0.25617  -0.04477  -0.01839
 120        5PX         0.21815  -0.07213  -0.11359  -0.06479  -0.06725
 121        5PY        -0.00973  -0.02141  -0.01397   0.00357   0.10613
 122        5PZ         0.01969   0.02574  -0.01218   0.10979  -0.05492
 123        6PX        -0.16179   0.13788  -0.04471   0.09440   0.12287
 124        6PY        -0.07562   0.21320  -0.09628   0.06783  -0.18238
 125        6PZ         0.00996   0.01150  -0.01010   0.04964  -0.02756
 126        7PX         0.28540  -0.06792  -0.18627   0.05390  -0.03559
 127        7PY         0.03752  -0.08560   0.12982  -0.01384  -0.04215
 128        7PZ         0.00359  -0.00017   0.00402   0.01721  -0.00356
 129        8D 0       -0.00114  -0.00019   0.00126  -0.00279   0.00418
 130        8D+1       -0.00146  -0.00093   0.00126   0.00090   0.00499
 131        8D-1       -0.00092   0.00028   0.00127  -0.00130   0.00324
 132        8D+2        0.00413  -0.00041  -0.00381   0.00324  -0.00142
 133        8D-2       -0.01215   0.00497   0.01254  -0.00054  -0.00781
 134        9D 0       -0.00945   0.00382   0.01118  -0.00634   0.00871
 135        9D+1       -0.00247  -0.00203   0.00124  -0.01408   0.00537
 136        9D-1        0.00260   0.00163   0.00150  -0.00096  -0.00629
 137        9D+2        0.05413  -0.10256  -0.00534   0.00992   0.14657
 138        9D-2        0.11358  -0.05934   0.05925  -0.12501  -0.07470
 139 7   N  1S          0.02731  -0.00308   0.04703  -0.00419  -0.00034
 140        2S         -0.00847   0.00894  -0.09032  -0.01201   0.03170
 141        3S         -0.01626  -0.01660  -0.16931   0.00194   0.10562
 142        4S          0.05879  -0.03570  -0.02792   0.00833   0.08605
 143        5PX         0.05314  -0.05794  -0.05262   0.02861   0.22047
 144        5PY        -0.03469  -0.01282   0.04348  -0.09239  -0.02711
 145        5PZ        -0.03450  -0.02343  -0.14424  -0.26798   0.12171
 146        6PX         0.03302   0.00332  -0.00629   0.02515   0.00767
 147        6PY        -0.01917   0.01540   0.03954  -0.03538  -0.09583
 148        6PZ        -0.01941  -0.01329  -0.07826  -0.14985   0.06549
 149        7PX        -0.04032   0.00518   0.07872  -0.00239  -0.05633
 150        7PY        -0.01742   0.00335   0.03105   0.00849  -0.03989
 151        7PZ        -0.00130  -0.00088  -0.00394  -0.00845   0.00350
 152        8D 0       -0.00173  -0.00024   0.00023  -0.00064   0.00003
 153        8D+1        0.00072   0.00091   0.00484   0.00399  -0.00664
 154        8D-1        0.00032   0.00063   0.00375   0.00231  -0.00445
 155        8D+2        0.00392  -0.00369  -0.00042  -0.00086  -0.00527
 156        8D-2        0.00163   0.00101   0.00093   0.00020   0.00230
 157        9D 0        0.00039   0.00124  -0.00106   0.00178  -0.01042
 158        9D+1       -0.00198   0.00069  -0.00301  -0.01504  -0.00173
 159        9D-1       -0.00177   0.00019  -0.00205  -0.01167  -0.00025
 160        9D+2        0.00801  -0.00305  -0.01377   0.01184   0.00039
 161        9D-2       -0.00061  -0.00154   0.00354  -0.00619   0.01463
 162 8   N  1S         -0.03386  -0.04273  -0.01008   0.01272   0.08595
 163        2S          0.04459  -0.00581   0.12513  -0.05628  -0.01483
 164        3S          0.07330   0.00504   0.21118  -0.06023  -0.09351
 165        4S         -0.04704   0.01803   0.12960   0.00345  -0.11198
 166        5PX        -0.03263   0.04775  -0.11144   0.08504  -0.01475
 167        5PY        -0.03411   0.02522  -0.04949  -0.01759  -0.15921
 168        5PZ        -0.02229  -0.01771  -0.11434  -0.15691   0.11940
 169        6PX        -0.00724   0.03077  -0.02415   0.04632  -0.04528
 170        6PY        -0.00626   0.01248   0.00654  -0.01220  -0.09320
 171        6PZ        -0.01038  -0.00670  -0.05203  -0.06917   0.05523
 172        7PX        -0.00532   0.00210   0.01342   0.00148  -0.01169
 173        7PY        -0.00368   0.00255   0.00962   0.00076  -0.01300
 174        7PZ         0.00055   0.00038  -0.00000   0.00507   0.00144
 175        8D 0        0.00158  -0.00205   0.00411  -0.00159   0.00374
 176        8D+1       -0.00207  -0.00147  -0.00923  -0.01567   0.00838
 177        8D-1       -0.00155  -0.00110  -0.00686  -0.01167   0.00626
 178        8D+2        0.00245  -0.00005  -0.00639   0.00792   0.00979
 179        8D-2       -0.00377   0.00365  -0.00569   0.00032  -0.00965
 180        9D 0       -0.00137  -0.00107  -0.00351   0.00054   0.00519
 181        9D+1       -0.00079  -0.00006  -0.00262  -0.00563   0.00166
 182        9D-1       -0.00067  -0.00001  -0.00192  -0.00460   0.00136
[...]
               (au)            (10**-24 esu)      (10**-40 SI)
   iso        0.973421D+02      0.144246D+02      0.160495D+02
   aniso      0.745427D+02      0.110461D+02      0.122904D+02
   xx         0.131787D+03      0.195288D+02      0.217287D+02
   yx        -0.176125D+02     -0.260991D+01     -0.290392D+01
   yy         0.105658D+03      0.156568D+02      0.174206D+02
   zx        -0.416218D-03     -0.616772D-04     -0.686251D-04
   zy        -0.776250D-04     -0.115028D-04     -0.127986D-04
   zz         0.545820D+02      0.808821D+01      0.899935D+01

 ----------------------------------------------------------------------

 Dipole orientation:
     6         -0.34279336          1.74031031          4.26657440
     6         -0.71329498          3.62040849          2.46939201
     6          0.14102727         -0.71539202          3.35775125
     6         -0.59945074          3.04205412         -0.11252992
     6          0.26968172         -1.36891148          0.77901273
     6         -0.11179479          0.56689448         -0.94748634
     7          0.51656787         -2.62116648          5.11295177
     7          0.81787745         -4.15013883          6.52607947
     1         -1.09321340          5.54865222          3.07964582
     1         -0.89405479          4.53699710         -1.49918997
     1          0.64970962         -3.29780782          0.17592835
     1         -0.41968968          2.13098746          6.28535943
     6         -0.00755350          0.03783822         -3.77238457
     9         -2.22598394          0.64112466         -4.86704862
     9          0.47561808         -2.41765117         -4.23920758
     9          1.81717615          1.43665103         -4.86675192

 Electric dipole moment (dipole orientation):
 (Debye = 10**-18 statcoulomb cm , SI units = C m)
                  (au)            (Debye)         (10**-30 SI)
   Tot        0.357446D+01      0.908537D+01      0.303055D+02
   x          0.000000D+00      0.000000D+00      0.000000D+00
   y          0.000000D+00      0.000000D+00      0.000000D+00
   z          0.357446D+01      0.908537D+01      0.303055D+02

 Dipole polarizability, Alpha (dipole orientation).
 (esu units = cm**3 , SI units = C**2 m**2 J**-1)
 Alpha(0;0):
               (au)            (10**-24 esu)      (10**-40 SI)
   iso        0.973421D+02      0.144246D+02      0.160495D+02
   aniso      0.745427D+02      0.110461D+02      0.122904D+02
   xx         0.567771D+02      0.841350D+01      0.936128D+01
   yx        -0.111404D+02     -0.165084D+01     -0.183681D+01
   yy         0.111120D+03      0.164663D+02      0.183212D+02
   zx         0.411022D+01      0.609072D+00      0.677684D+00
   zy        -0.208508D+02     -0.308977D+01     -0.343783D+01
   zz         0.124129D+03      0.183940D+02      0.204661D+02

 ----------------------------------------------------------------------
 1\1\GINC-LC06-SRV\Freq\UB3LYP\Aug-CC-pVDZ\C7H4F3N2(1+)\UBUNTU\08-Aug-2
 020\0\\#P Geom=AllCheck Guess=TCheck SCRF=Check GenChk UB3LYP/Aug-CC-p
 VDZ Freq\\3-CF3PhN2+_UB3LYP-aug-cc-pVDZ\\1,1\C,2.03373,1.35739,-0.0000
 1\C,0.90461,2.16845,0.\C,1.81792,-0.03508,0.\C,-0.37561,1.59828,0.0000
 3\C,0.54719,-0.6447,0.00003\C,-0.55104,0.20307,0.00004\N,2.92792,-0.86
 402,0.\N,3.82103,-1.52856,-0.00001\H,1.0204,3.25126,0.\H,-1.25143,2.24
 752,0.00004\H,0.43519,-1.72712,0.00004\H,3.04114,1.77064,-0.00003\C,-1
 .96255,-0.36588,0.00001\F,-2.63534,0.05211,1.09008\F,-1.94891,-1.71296
 ,0.00034\F,-2.63503,0.05158,-1.09049\\Version=ES64L-G16RevA.03\State=1
 -A\HF=-677.9556438\S2=0.\S2-1=0.\S2A=0.\RMSD=3.218e-09\RMSF=1.502e-05\
 ZeroPoint=0.1027802\Thermal=0.1125892\Dipole=3.5070327,0.6910076,0.000
 0732\DipoleDeriv=0.1603084,0.0354126,-0.0000057,-0.5246889,0.2397526,0
 .0000068,-0.0000044,-0.0000023,0.008188,-0.544408,0.0596025,0.000008,0
 .0632637,0.1573071,-0.0000021,0.0000033,0.,-0.0566341,-0.5697087,0.525
 2786,0.0000049,0.593006,-0.2240086,-0.0000074,0.0000085,-0.0000111,0.0
 58651,0.2468781,-0.0646997,-0.0000059,0.0066357,0.221159,-0.0000075,-0
 .0000064,-0.0000051,0.0397209,0.318642,-0.3929975,-0.0000093,0.061578,
 -0.008699,0.0000024,-0.0000167,0.000011,0.0233736,-0.1053623,0.1689659
 ,0.0000181,0.1042383,-0.4615521,0.0000081,0.0000729,0.0000198,-0.06749
 96,1.2880574,-0.8091823,-0.0000018,-0.8794755,0.722339,0.0000031,-0.00
 00075,0.000011,0.2655613,-0.4264838,0.3533242,-0.0000003,0.3902499,-0.
 1676608,0.0000006,0.0000061,-0.0000047,0.0951625,0.0793745,-0.0022142,
 0.000001,-0.0093367,0.0937614,0.0000005,0.0000033,-0.0000024,0.1402104
 ,0.1116482,-0.0039547,-0.0000023,-0.0018524,0.1240402,0.,-0.0000026,0.
 0000004,0.1255864,0.1249848,0.0318218,-0.0000009,0.0333206,0.1309003,-
 0.0000021,-0.0000015,-0.0000017,0.147273,0.0873157,0.0221087,0.0000008
 ,0.0309385,0.1114391,0.,0.0000016,0.0000002,0.1509787,2.031568,0.10829
 67,-0.000034,0.2552759,1.452038,-0.0000119,-0.0000057,-0.0000061,1.585
 274,-0.6823295,0.0322617,0.2809989,0.0110463,-0.2872469,-0.1302605,0.2
 862688,-0.1220591,-0.6322286,-0.4382477,-0.0961029,0.000011,-0.1450525
 ,-0.8164322,0.0001586,0.0000048,0.0001284,-0.2511067,-0.6822372,0.0320
 783,-0.2809827,0.0108534,-0.2871371,0.1301114,-0.2863246,0.1219218,-0.
 6325107\Polar=131.7866511,-17.6125493,105.6575419,-0.0004162,-0.000077
 6,54.5819754\Quadrupole=9.4354408,2.1194811,-11.5549219,-2.5813666,-0.
 0003587,-0.0000102\PG=C01 [X(C7H4F3N2)]\NImag=0\\0.75936548,0.02548127
 ,0.64467145,-0.00000991,-0.00000391,0.13232513,-0.27260528,0.08000728,
 0.00000215,0.65713977,0.13989795,-0.20600968,-0.00000123,-0.00042843,0
 .75471712,0.00000209,-0.00000059,-0.06385434,-0.00000897,-0.00000168,0
 .13494367,-0.11086364,-0.04747759,0.00000103,0.02141487,0.02223405,-0.
 00000027,0.57632868,-0.08227514,-0.28463849,0.00000214,0.06513649,-0.0
 3789869,-0.00000071,0.07682099,0.62139267,0.00000113,0.00000213,-0.055
 78639,-0.00000059,0.00000021,0.00666322,-0.00000785,-0.00000545,0.1190
 3680,-0.05486422,0.03086748,0.00000096,-0.29882923,-0.10955077,0.00000
 547,-0.01943190,-0.02436922,0.00000048,0.72148940,-0.00530870,0.058867
 52,-0.00000015,-0.04687962,-0.16378116,0.00000174,-0.02606320,-0.03407
 130,0.00000056,-0.03616253,0.67355895,0.00000092,-0.00000137,0.0057254
 6,0.00000451,0.00000282,-0.06472663,0.00000098,0.00000083,-0.00585478,
 -0.00000918,-0.00000176,0.14794944,0.01163542,-0.06352589,0.00000069,-
 0.05606704,0.00990589,0.00000073,-0.23549860,-0.08515274,0.00000426,0.
 04291522,0.06257928,-0.00000188,0.65097545,-0.03074583,-0.01734495,0.0
 0000084,0.00228493,0.00041847,-0.00000003,-0.11956501,-0.15910683,0.00
 000268,0.02353246,-0.03860441,0.00000006,-0.00662053,0.76401882,0.0000
 0004,0.00000157,0.01126835,0.00000140,-0.00000033,-0.00457524,0.000004
 16,0.00000198,-0.05482319,-0.00000134,-0.00000103,0.00655190,-0.000007
 34,-0.00000514,0.13045067,-0.00708156,0.02354478,-0.00000031,0.0212533
 0,-0.03798930,-0.00000023,-0.05687290,-0.00032456,0.00000083,-0.133044
 94,-0.05151737,0.00000175,-0.26855586,0.13951587,0.00000133,0.66916404
 ,0.01515071,-0.04617232,0.00000010,-0.06936164,-0.01067991,0.00000134,
 0.04331220,0.03750511,-0.00000105,0.01062056,-0.31024431,-0.00000007,0
 .07869757,-0.20954892,0.00000081,-0.03687192,0.67392713,0.00000057,-0.
 00000034,-0.00457846,0.00000003,0.00000009,0.00600579,0.00000107,0.000
 00063,0.00354487,0.00000036,0.00000161,-0.06716040,0.00000072,-0.00000
 104,-0.06204517,0.00000110,0.00000029,0.17504027,-0.01335013,0.0503030
 0,-0.00000053,0.02029258,-0.00154422,-0.00000002,-0.12795901,0.0215069
 4,0.00000071,-0.00434211,-0.00144900,-0.00000012,-0.07657292,0.0337682
 8,0.00000043,-0.00352334,-0.02068843,-0.00000010,1.09648312,0.05291275
 ,-0.05066225,-0.00000002,-0.01269800,-0.01064441,0.00000023,0.02149881
 ,-0.11516021,0.00000077,-0.00214783,-0.00629867,0.00000020,0.03099881,
 0.01166975,-0.00000078,-0.00920636,0.01453871,0.00000031,-0.71915935,0
 .66429061,-0.00000024,-0.00000052,-0.00739556,-0.00000011,0.00000017,0
 .00916354,0.00000072,0.00000073,-0.04683346,0.00000009,0.00000001,-0.0
 0218960,0.00000067,-0.00000062,-0.00738345,0.00000057,0.00000022,0.008
 81277,-0.00001017,0.00000677,0.09500622,0.00099657,-0.02033861,0.00000
 022,-0.00794469,0.00129959,0.00000006,-0.04393219,0.05044936,0.0000005
 2,0.00237200,-0.00108880,0.00000005,0.01920055,-0.00056259,-0.00000023
 ,-0.00171644,0.00831545,0.00000005,-0.89315102,0.63693055,0.00000891,0
 .92478425,-0.00578605,0.01284887,0.,0.00572974,0.00133186,-0.00000010,
 0.05046176,-0.01377052,-0.00000072,-0.00060856,0.00234246,-0.00000006,
 -0.01477751,-0.00513131,0.00000041,0.00346402,-0.00572885,0.,0.6369429
 1,-0.51063227,-0.00000671,-0.67494113,0.51984697,0.00000002,0.00000033
 ,0.00466482,0.00000010,-0.00000004,-0.00217464,0.00000005,-0.00000033,
 0.01338274,-0.00000005,0.00000003,0.00071387,-0.00000014,0.00000013,0.
 00465049,-0.00000009,-0.00000011,-0.00199456,0.00000945,-0.00000715,-0
 .04303130,-0.00000946,0.00000715,0.02302106,0.00472256,0.02656228,0.,-
 0.05924192,-0.03116327,0.00000034,-0.00305310,0.00230772,0.00000012,0.
 00041043,-0.02860068,0.00000012,-0.00119530,0.00008717,0.,-0.00504365,
 -0.00186702,0.00000011,0.00006369,0.00251131,0.,-0.00040439,-0.0003241
 1,0.,0.06146681,-0.00320003,-0.01172577,0.,-0.03079373,-0.34601336,0.0
 0000030,0.00203602,0.00090464,-0.00000001,0.00093109,-0.00584534,-0.00
 000003,-0.00004698,0.00055351,0.,-0.00140962,0.00115486,-0.00000005,0.
 00055312,-0.00072149,-0.00000002,-0.00028830,0.00012129,0.,0.03198957,
 0.36032181,0.00000001,-0.00000014,0.00399973,0.00000022,-0.00000033,-0
 .03946991,0.00000006,0.00000007,0.00644035,0.00000020,0.00000066,0.004
 44990,0.00000004,-0.00000004,-0.00128517,0.00000031,0.00000013,0.00690
 026,0.00000004,-0.00000004,0.00185495,-0.00000002,0.,-0.00062868,-0.00
 000058,-0.00000027,0.02649890,-0.00398063,-0.00233451,0.00000029,-0.01
 533243,0.01675952,0.00000015,0.00048701,-0.00128131,-0.00000004,-0.243
 94155,0.13813132,0.00000218,0.00036840,-0.00220961,0.00000018,0.008352
 82,-0.00443944,0.00000001,-0.00072518,0.00054135,-0.00000003,0.0003208
 7,-0.00027146,0.,0.00090112,0.00024223,-0.00000010,0.25376050,-0.00350
 185,-0.00061157,0.00000010,-0.01277718,0.01171783,0.00000012,-0.001272
 57,-0.00010831,0.00000006,0.13757753,-0.16212764,-0.00000162,-0.001402
 80,-0.00528133,-0.00000001,0.02411646,-0.01250848,-0.00000019,0.000473
 31,-0.00029823,-0.00000002,-0.00024689,0.00012813,0.,0.00001076,0.0007
 7615,-0.00000001,-0.14460221,0.16773232,0.00000017,0.00000012,0.007241
 86,0.00000062,-0.00000021,0.00696852,-0.00000003,0.,-0.00006071,0.0000
 0192,-0.00000205,-0.04401696,0.00000008,0.00000016,0.00668082,0.000000
 07,0.00000013,0.00663032,-0.00000002,-0.00000002,-0.00184643,0.,0.0000
 0001,0.00050602,-0.00000009,0.,-0.00373436,-0.00000267,0.00000191,0.02
 604046,-0.00508367,-0.00063212,0.00000016,-0.00012146,0.00015116,-0.00
 000005,-0.00229647,-0.02695140,0.00000017,-0.00503965,0.00248191,0.000
 00015,-0.05912534,-0.02822779,0.00000043,0.00907690,0.02362983,0.,0.00
 349152,-0.00265654,-0.00000010,-0.00129468,0.00067056,0.00000004,0.000
 06071,-0.00002999,0.,0.00049148,0.00124054,-0.00000003,0.06021054,-0.0
 0118242,0.00175199,0.00000009,0.00099336,0.00036174,-0.00000005,0.0013
 9335,-0.00409892,-0.00000006,0.00241220,-0.00054740,0.00000013,-0.0285
 4813,-0.34851297,0.00000284,-0.00306017,-0.01073985,0.00000016,0.00072
 599,0.00019631,-0.00000006,-0.00061883,0.00034624,0.00000002,-0.000052
 28,-0.00005798,0.,-0.00033587,-0.00043313,-0.00000001,0.03101662,0.362
 04778,0.00000013,-0.00000007,0.00458004,-0.00000012,0.,-0.00131336,0.0
 0000028,0.00000068,0.00327467,0.00000025,-0.00000003,0.00704043,0.0000
 0017,0.00000278,-0.03660000,0.00000006,-0.00000017,0.00654275,-0.00000
 011,-0.00000001,-0.00433700,0.00000005,-0.00000002,0.00087579,-0.00000
 002,0.,-0.00066398,-0.00000003,-0.00000001,-0.00061612,-0.00000063,-0.
 00000323,0.02450576,-0.30817224,-0.10428333,0.00000521,-0.01384800,-0.
 01108592,0.00000042,0.00230106,0.00318089,0.00000005,-0.00236766,0.003
 14123,0.00000013,0.00170223,0.00076098,0.00000003,-0.00001145,0.001143
 98,-0.00000007,0.00087379,0.00003500,-0.00000010,0.00027720,-0.0002518
 5,0.00000001,0.00088855,-0.00016466,-0.00000009,-0.00062675,-0.0006461
 5,0.,0.00018722,0.00011092,0.00000002,0.31887275,-0.10240387,-0.099528
 61,0.00000216,0.01802193,0.01235388,-0.00000035,-0.02622885,-0.0095255
 2,0.00000052,0.00349205,-0.00270040,0.00000008,0.00130886,-0.00505668,
 0.00000005,0.00041039,-0.00002831,-0.00000009,-0.00345179,0.00272400,0
 .,0.00114734,-0.00112560,0.,-0.00009318,0.00074690,-0.00000004,0.00084
 483,0.00056076,-0.00000002,-0.00108188,-0.00004167,0.00000001,0.108176
 12,0.10158885,0.00000545,0.00000237,-0.03678772,0.00000023,0.00000004,
 0.00609604,0.00000007,-0.00000009,0.00338122,0.00000004,-0.00000009,0.
 00745162,0.00000004,0.00000011,0.00461579,0.,-0.00000002,-0.00108447,-
 0.00000006,-0.00000004,-0.00421583,0.,0.00000002,0.00083325,-0.0000000
 9,0.00000002,-0.00416822,0.,0.00000001,-0.00076677,0.00000006,0.000000
 02,0.00123989,-0.00000565,-0.00000234,0.02415345,0.00134276,0.00205957
 ,0.,0.00321311,0.00335726,-0.00000005,0.00212673,0.00110444,-0.0000001
 7,0.00352471,-0.01375546,0.00000042,-0.02409454,-0.00382745,-0.0000004
 9,-0.17770426,-0.03471450,-0.00000209,-0.00399969,0.00445577,-0.000000
 04,0.00218802,-0.00217620,0.00000001,0.00124030,0.00026808,-0.00000014
 ,0.00102101,0.00263339,-0.00000009,0.00089880,-0.00036795,-0.00000003,
 -0.00039762,-0.00024664,-0.00000001,0.55531230,0.00150954,-0.00239123,
 0.00000002,-0.00131946,-0.00569785,-0.00000006,0.00751096,-0.00369834,
 0.00000005,-0.03036230,-0.00712240,-0.00000120,0.01179581,0.01704493,0
 .00000103,-0.03881919,-0.10598527,-0.00000161,-0.00086456,0.00453653,-
 0.00000016,0.00214648,-0.00227527,0.,-0.00105102,-0.00019836,0.0000001
 1,-0.00108168,-0.00168262,0.00000018,0.00437156,-0.00068286,-0.0000002
 8,-0.00002168,-0.00036700,-0.00000004,0.02098698,0.52515855,-0.0000001
 1,0.00000030,-0.00092637,0.00000105,0.00000015,0.00599106,0.00000056,0
 .00000029,0.00676450,0.00000040,0.00000082,0.00152342,0.00000124,-0.00
 000011,0.00386689,0.00000103,-0.00000054,-0.06428305,0.00000010,0.0000
 0013,0.00227537,0.00000002,-0.00000013,-0.00063231,0.00000007,0.000000
 08,0.00017956,-0.00000034,-0.00000060,-0.00145693,-0.00000074,0.,-0.00
 331426,0.00000003,0.00000001,-0.00061085,-0.00003016,0.00001475,0.4733
 4016,-0.00096607,0.00038682,0.00039789,0.00061872,0.00002621,-0.001188
 94,-0.00162143,0.00016621,-0.00178492,-0.00157395,0.00164391,0.0001483
 6,-0.00136435,-0.00379463,0.00128043,-0.02755293,0.01108598,0.03593094
 ,0.00066920,-0.00164924,-0.00073458,-0.00062896,0.00076242,0.00026710,
 -0.00014785,-0.00000853,0.00012936,-0.00055697,-0.00071441,0.00088935,
 0.00010174,-0.00007126,0.00114760,0.00013247,0.00006778,0.00012387,-0.
 14209660,0.02368756,0.08879501,0.14818817,-0.00021781,0.00039132,-0.00
 006381,0.00057982,0.00083193,0.00049336,-0.00123758,0.00044518,-0.0000
 9186,0.00055668,-0.00161204,0.00043814,0.00002547,-0.00114539,0.000549
 83,-0.00379391,0.01050630,0.00099489,0.00051634,-0.00069393,-0.0002319
 1,-0.00042819,0.00034061,0.00006578,0.00013201,0.00002936,-0.00000188,
 -0.00015114,0.00073420,-0.00043297,-0.00067353,-0.00007139,-0.00009112
 ,-0.00003598,0.00007299,-0.00006663,0.02451847,-0.08127505,-0.03418375
 ,-0.04892203,0.10113638,0.00016881,0.00011796,-0.00023783,0.00022399,0
 .00035012,0.00042730,0.00046328,-0.00045400,0.00038595,0.00018675,-0.0
 0175051,0.00064149,0.00223841,0.00235416,-0.00065099,0.01702990,-0.007
 12185,-0.01043908,0.00020708,0.00049450,0.00011333,0.00007428,-0.00025
 057,-0.00009413,0.00014398,0.00001998,-0.00011917,0.00008109,0.0005135
 4,-0.00076015,-0.00039346,0.00003586,-0.00046945,-0.00005661,0.0000117
 2,-0.00006065,0.08628201,-0.03293267,-0.17697544,-0.12706825,0.0754271
 1,0.27460776,-0.00012896,-0.00100726,0.,-0.00056093,-0.00189587,-0.000
 00042,0.00049204,-0.00048384,0.00000007,-0.00570165,0.00120440,0.00000
 046,-0.00296284,-0.00060429,0.00000051,0.00080009,-0.03507625,0.000006
 69,0.00107939,-0.00071774,0.,-0.00043794,0.00034307,0.,-0.00052009,-0.
 00006973,-0.00000002,0.00001654,-0.00017408,0.00000017,-0.00165880,-0.
 00234422,0.00000030,0.00005601,-0.00003093,0.00000001,-0.08054466,-0.0
 2211765,0.00000589,0.00605806,0.03182530,0.01242413,0.07794909,-0.0001
 1241,0.00016176,0.00000009,0.00092378,-0.00183916,-0.00000060,-0.00218
 517,0.00138473,-0.00000025,-0.00734622,-0.00020383,0.00000101,0.004737
 65,-0.00282598,-0.00000051,-0.00425702,-0.03650607,0.00001016,0.001851
 09,-0.00215018,-0.00000005,-0.00134716,0.00101665,0.00000005,-0.000581
 24,-0.00007556,-0.00000002,0.00033873,0.00066897,0.00000006,-0.0026357
 4,0.00055356,0.00000053,-0.00002367,0.00025346,0.00000007,-0.02875196,
 -0.25412770,0.00004156,0.02003036,-0.04372103,-0.03423754,-0.00065514,
 0.38108931,0.00000006,-0.00000025,-0.00000060,-0.00000052,0.00000044,-
 0.00057323,0.00000038,-0.00000010,0.00009723,0.00000143,0.00000026,0.0
 0125941,-0.00000090,0.00000057,-0.00007058,-0.00000007,0.00000601,0.00
 856536,-0.00000026,0.00000035,-0.00010714,0.00000020,-0.00000017,0.000
 00185,0.00000010,0.,-0.00013491,0.00000009,0.00000002,-0.00004893,0.00
 000044,0.00000006,-0.00027478,0.00000001,-0.00000002,-0.00001600,0.000
 00675,0.00004242,-0.06872022,0.00963083,-0.04533652,-0.00671072,-0.000
 00207,-0.00007431,0.07348958,-0.00096639,0.00038683,-0.00039787,0.0006
 1866,0.00002616,0.00118970,-0.00162115,0.00016516,0.00178524,-0.001574
 89,0.00164333,-0.00014885,-0.00136048,-0.00379195,-0.00127953,-0.02753
 980,0.01106292,-0.03593939,0.00067009,-0.00164928,0.00073441,-0.000629
 15,0.00076239,-0.00026704,-0.00014786,-0.00000854,-0.00012930,-0.00055
 625,-0.00071387,-0.00088945,0.00010116,-0.00007131,-0.00114793,0.00013
 246,0.00006784,-0.00012398,-0.14203038,0.02362865,-0.08877405,0.020740
 75,-0.00269393,0.00799462,0.00606464,0.02001412,-0.00963648,0.14809861
 ,-0.00021812,0.00039196,0.00006358,0.00058074,0.00083139,-0.00049292,-
 0.00123816,0.00044480,0.00009240,0.00055738,-0.00161004,-0.00043715,0.
 00002524,-0.00114671,-0.00055073,-0.00380208,0.01051017,-0.00100481,0.
 00051636,-0.00069427,0.00023217,-0.00042826,0.00034074,-0.00006586,0.0
 0013196,0.00002935,0.00000182,-0.00015074,0.00073294,0.00043273,-0.000
 67317,-0.00007147,0.00009092,-0.00003589,0.00007295,0.00006660,0.02445
 620,-0.08123606,0.03412704,-0.00269717,0.01403057,-0.00257781,0.031804
 23,-0.04367895,0.04536125,-0.04882852,0.10105263,-0.00016915,-0.000117
 58,-0.00023811,-0.00022399,-0.00035023,0.00042820,-0.00046448,0.000453
 33,0.00038697,-0.00018778,0.00174993,0.00064142,-0.00223680,-0.0023545
 0,-0.00065114,-0.01703626,0.00711479,-0.01045721,-0.00020642,-0.000495
 21,0.00011360,-0.00007466,0.00025090,-0.00009426,-0.00014405,-0.000020
 02,-0.00011925,-0.00008081,-0.00051330,-0.00076064,0.00039355,-0.00003
 576,-0.00047036,0.00005660,-0.00001168,-0.00006076,-0.08625591,0.03287
 748,-0.17702155,-0.00796403,0.00253134,-0.07965823,-0.01243572,0.03425
 975,-0.00675630,0.12702991,-0.07533923,0.27471761\\0.00000836,0.000022
 69,0.00000088,0.00002348,0.00000334,-0.00000154,-0.00001485,0.00000894
 ,-0.00000148,0.00000014,-0.00006182,0.00000103,0.00001421,-0.00000015,
 0.00000059,-0.00003611,0.00001678,-0.00000058,0.00001642,-0.00000693,0
 .00000093,-0.00001405,0.00000777,-0.00000034,-0.00000447,0.00000162,0.
 00000047,0.00000566,0.00004643,-0.00000022,-0.00000125,-0.00000233,-0.
 00000019,-0.00000163,-0.00001130,-0.00000017,0.00001237,0.00000003,0.0
 0001086,0.00000539,-0.00001069,-0.00001149,-0.00001374,-0.00000921,0.0
 0000076,0.00000006,-0.00000518,0.00000047\\\@


 There are more things in heaven and earth, Horatio,
 than are dreamt of in your philosophy.
                   -- Hamlet, Act I, Scene 5
 Job cpu time:       0 days  3 hours  8 minutes 44.6 seconds.
 Elapsed time:       0 days  0 hours 27 minutes  5.2 seconds.
 File lengths (MBytes):  RWF=    307 Int=      0 D2E=      0 Chk=     11 Scr=      1
 Normal termination of Gaussian 16 at Sat Aug  8 21:55:13 2020.
