 Entering Gaussian System, Link 0=/home/ubuntu/g16/g16
 Input=3-FPhN2+_UB3LYP-aug-cc-pVDZ-Opt.gjf
 Output=3-FPhN2+_UB3LYP-aug-cc-pVDZ-Opt.log
 Initial command:
 /home/ubuntu/g16/l1.exe "/home/ubuntu/g09-linda/scr/Gau-9614.inp" -scrdir="/home/ubuntu/g09-linda/scr/"
 Entering Link 1 = /home/ubuntu/g16/l1.exe PID=      9616.
  
 Copyright (c) 1988,1990,1992,1993,1995,1998,2003,2009,2016,
            Gaussian, Inc.  All Rights Reserved.
  
 This is part of the Gaussian(R) 16 program.  It is based on
 the Gaussian(R) 09 system (copyright 2009, Gaussian, Inc.),
 the Gaussian(R) 03 system (copyright 2003, Gaussian, Inc.),
 the Gaussian(R) 98 system (copyright 1998, Gaussian, Inc.),
 the Gaussian(R) 94 system (copyright 1995, Gaussian, Inc.),
 the Gaussian 92(TM) system (copyright 1992, Gaussian, Inc.),
 the Gaussian 90(TM) system (copyright 1990, Gaussian, Inc.),
 the Gaussian 88(TM) system (copyright 1988, Gaussian, Inc.),
 the Gaussian 86(TM) system (copyright 1986, Carnegie Mellon
 University), and the Gaussian 82(TM) system (copyright 1983,
 Carnegie Mellon University). Gaussian is a federally registered
 trademark of Gaussian, Inc.
  
 This software contains proprietary and confidential information,
 including trade secrets, belonging to Gaussian, Inc.
  
 This software is provided under written license and may be
 used, copied, transmitted, or stored only in accord with that
 written license.
  
 The following legend is applicable only to US Government
 contracts under FAR:
  
                    RESTRICTED RIGHTS LEGEND
  
 Use, reproduction and disclosure by the US Government is
 subject to restrictions as set forth in subparagraphs (a)
 and (c) of the Commercial Computer Software - Restricted
 Rights clause in FAR 52.227-19.
  
 Gaussian, Inc.
 340 Quinnipiac St., Bldg. 40, Wallingford CT 06492
  
  
 ---------------------------------------------------------------
 Warning -- This program may not be used in any manner that
 competes with the business of Gaussian, Inc. or will provide
 assistance to any competitor of Gaussian, Inc.  The licensee
 of this program is prohibited from giving any competitor of
 Gaussian, Inc. access to this program.  By using this program,
 the user acknowledges that Gaussian, Inc. is engaged in the
 business of creating and licensing software in the field of
 computational chemistry and represents and warrants to the
 licensee that it is not a competitor of Gaussian, Inc. and that
 it will not use this program in any manner prohibited above.
 ---------------------------------------------------------------
  

 Cite this work as:
 Gaussian 16, Revision A.03,
 M. J. Frisch, G. W. Trucks, H. B. Schlegel, G. E. Scuseria, 
 M. A. Robb, J. R. Cheeseman, G. Scalmani, V. Barone, 
 G. A. Petersson, H. Nakatsuji, X. Li, M. Caricato, A. V. Marenich, 
 J. Bloino, B. G. Janesko, R. Gomperts, B. Mennucci, H. P. Hratchian, 
 J. V. Ortiz, A. F. Izmaylov, J. L. Sonnenberg, D. Williams-Young, 
 F. Ding, F. Lipparini, F. Egidi, J. Goings, B. Peng, A. Petrone, 
 T. Henderson, D. Ranasinghe, V. G. Zakrzewski, J. Gao, N. Rega, 
 G. Zheng, W. Liang, M. Hada, M. Ehara, K. Toyota, R. Fukuda, 
 J. Hasegawa, M. Ishida, T. Nakajima, Y. Honda, O. Kitao, H. Nakai, 
 T. Vreven, K. Throssell, J. A. Montgomery, Jr., J. E. Peralta, 
 F. Ogliaro, M. J. Bearpark, J. J. Heyd, E. N. Brothers, K. N. Kudin, 
 V. N. Staroverov, T. A. Keith, R. Kobayashi, J. Normand, 
 K. Raghavachari, A. P. Rendell, J. C. Burant, S. S. Iyengar, 
 J. Tomasi, M. Cossi, J. M. Millam, M. Klene, C. Adamo, R. Cammi, 
 J. W. Ochterski, R. L. Martin, K. Morokuma, O. Farkas, 
 J. B. Foresman, and D. J. Fox, Gaussian, Inc., Wallingford CT, 2016.
 
 ******************************************
 Gaussian 16:  ES64L-G16RevA.03 25-Dec-2016
                 8-Aug-2020 
 ******************************************
 %chk=3-FPhN2+_UB3LYP-aug-cc-pVDZ-Opt.chk
 %mem=500MW
 %nproc=7
 Will use up to    7 processors via shared memory.
 ----------------------------------------------------------------------
 #p opt=(maxcycles=777) freq ub3lyp/aug-cc-pVDZ pop=(Bonding,AllOrbital
 s,mk,no,nboread)
 ----------------------------------------------------------------------
 1/6=777,18=20,19=15,26=3,38=1/1,3;
 2/9=110,12=2,17=6,18=5,40=1/2;
 3/5=16,7=10,11=2,25=1,30=1,71=1,74=-5,116=2/1,2,3;
 4//1;
 5/5=2,38=5/2;
 6/7=2,8=2,9=2,10=2,15=8,20=1,22=-1,27=20,28=1,31=1,40=2,96=-1/1,2,7;
 7//1,2,3,16;
 1/6=777,18=20,19=15,26=3/3(2);
 2/9=110/2;
 99//99;
 2/9=110/2;
 3/5=16,7=10,11=2,25=1,30=1,71=1,74=-5,116=2/1,2,3;
 4/5=5,16=3,69=1/1;
 5/5=2,38=5/2;
 7//1,2,3,16;
 1/6=777,18=20,19=15,26=3/3(-5);
 2/9=110/2;
 6/7=2,8=2,9=2,10=2,15=8,19=2,20=1,22=-1,27=20,28=1,31=1,40=2,96=-1/1,2,7;
 99/9=1/99;
 Leave Link    1 at Sat Aug  8 22:40:05 2020, MaxMem=   524288000 cpu:               0.4 elap:               0.1
 (Enter /home/ubuntu/g16/l101.exe)
 ---------------------------
 3-FPhN2+_UB3LYP-aug-cc-pVDZ
 ---------------------------
 Symbolic Z-matrix:
 Charge =  1 Multiplicity = 1
 C                    -0.62343   1.42546   0.00006 
 C                     0.71449   1.80947   0.00006 
 C                    -0.88714   0.04152   0.00001 
 C                     1.73391   0.84922   0.00001 
 C                     0.09983  -0.96445  -0.00004 
 C                     1.41193  -0.51427  -0.00004 
 N                    -2.21215  -0.36192   0.00002 
 N                    -3.279    -0.68034   0.00002 
 H                     0.96854   2.86846   0.0001 
 H                     2.78354   1.14345   0.00001 
 H                    -0.13912  -2.02622  -0.00008 
 H                    -1.43317   2.15261   0.0001 
 F                     2.39564  -1.4138   -0.00009 
 
 ITRead=  0  0  0  0  0  0  0  0  0  0  0  0  0
 MicOpt= -1 -1 -1 -1 -1 -1 -1 -1 -1 -1 -1 -1 -1
 NAtoms=     13 NQM=       13 NQMF=       0 NMMI=      0 NMMIF=      0
                NMic=       0 NMicF=      0.
                    Isotopes and Nuclear Properties:
 (Nuclear quadrupole moments (NQMom) in fm**2, nuclear magnetic moments (NMagM)
  in nuclear magnetons)

  Atom         1           2           3           4           5           6           7           8           9          10
 IAtWgt=          12          12          12          12          12          12          14          14           1           1
 AtmWgt=  12.0000000  12.0000000  12.0000000  12.0000000  12.0000000  12.0000000  14.0030740  14.0030740   1.0078250   1.0078250
 NucSpn=           0           0           0           0           0           0           2           2           1           1
 AtZEff=  -0.0000000  -0.0000000  -0.0000000  -0.0000000  -0.0000000  -0.0000000  -0.0000000  -0.0000000  -0.0000000  -0.0000000
 NQMom=    0.0000000   0.0000000   0.0000000   0.0000000   0.0000000   0.0000000   2.0440000   2.0440000   0.0000000   0.0000000
 NMagM=    0.0000000   0.0000000   0.0000000   0.0000000   0.0000000   0.0000000   0.4037610   0.4037610   2.7928460   2.7928460
 AtZNuc=   6.0000000   6.0000000   6.0000000   6.0000000   6.0000000   6.0000000   7.0000000   7.0000000   1.0000000   1.0000000

  Atom        11          12          13
 IAtWgt=           1           1          19
 AtmWgt=   1.0078250   1.0078250  18.9984033
 NucSpn=           1           1           1
 AtZEff=  -0.0000000  -0.0000000  -0.0000000
 NQMom=    0.0000000   0.0000000   0.0000000
 NMagM=    2.7928460   2.7928460   2.6288670
 AtZNuc=   1.0000000   1.0000000   9.0000000
 Leave Link  101 at Sat Aug  8 22:40:05 2020, MaxMem=   524288000 cpu:               0.6 elap:               0.1
 (Enter /home/ubuntu/g16/l103.exe)

 GradGradGradGradGradGradGradGradGradGradGradGradGradGradGradGradGradGrad
 Berny optimization.
 Initialization pass.
                           ----------------------------
                           !    Initial Parameters    !
                           ! (Angstroms and Degrees)  !
 --------------------------                            --------------------------
 ! Name  Definition              Value          Derivative Info.                !
 --------------------------------------------------------------------------------
 ! R1    R(1,2)                  1.3919         estimate D2E/DX2                !
 ! R2    R(1,3)                  1.4088         estimate D2E/DX2                !
 ! R3    R(1,12)                 1.0883         estimate D2E/DX2                !
 ! R4    R(2,4)                  1.4005         estimate D2E/DX2                !
 ! R5    R(2,9)                  1.089          estimate D2E/DX2                !
 ! R6    R(3,5)                  1.4093         estimate D2E/DX2                !
 ! R7    R(3,7)                  1.3851         estimate D2E/DX2                !
 ! R8    R(4,6)                  1.401          estimate D2E/DX2                !
 ! R9    R(4,10)                 1.0901         estimate D2E/DX2                !
 ! R10   R(5,6)                  1.3872         estimate D2E/DX2                !
 ! R11   R(5,11)                 1.0883         estimate D2E/DX2                !
 ! R12   R(6,13)                 1.333          estimate D2E/DX2                !
 ! R13   R(7,8)                  1.1134         estimate D2E/DX2                !
 ! A1    A(2,1,3)              116.8029         estimate D2E/DX2                !
 ! A2    A(2,1,12)             122.0615         estimate D2E/DX2                !
 ! A3    A(3,1,12)             121.1356         estimate D2E/DX2                !
 ! A4    A(1,2,4)              120.6974         estimate D2E/DX2                !
 ! A5    A(1,2,9)              119.5048         estimate D2E/DX2                !
 ! A6    A(4,2,9)              119.7978         estimate D2E/DX2                !
 ! A7    A(1,3,5)              124.7578         estimate D2E/DX2                !
 ! A8    A(1,3,7)              117.7229         estimate D2E/DX2                !
 ! A9    A(5,3,7)              117.5193         estimate D2E/DX2                !
 ! A10   A(2,4,6)              120.0014         estimate D2E/DX2                !
 ! A11   A(2,4,10)             121.0529         estimate D2E/DX2                !
 ! A12   A(6,4,10)             118.9458         estimate D2E/DX2                !
 ! A13   A(3,5,6)              115.5167         estimate D2E/DX2                !
 ! A14   A(3,5,11)             122.8632         estimate D2E/DX2                !
 ! A15   A(6,5,11)             121.6201         estimate D2E/DX2                !
 ! A16   A(4,6,5)              122.2237         estimate D2E/DX2                !
 ! A17   A(4,6,13)             119.154          estimate D2E/DX2                !
 ! A18   A(5,6,13)             118.6224         estimate D2E/DX2                !
 ! A19   L(3,7,8,12,-1)        179.6842         estimate D2E/DX2                !
 ! A20   L(3,7,8,12,-2)        179.9995         estimate D2E/DX2                !
 ! D1    D(3,1,2,4)              0.0001         estimate D2E/DX2                !
 ! D2    D(3,1,2,9)           -179.9999         estimate D2E/DX2                !
 ! D3    D(12,1,2,4)           179.9999         estimate D2E/DX2                !
 ! D4    D(12,1,2,9)            -0.0001         estimate D2E/DX2                !
 ! D5    D(2,1,3,5)              0.0            estimate D2E/DX2                !
 ! D6    D(2,1,3,7)            179.9995         estimate D2E/DX2                !
 ! D7    D(12,1,3,5)          -179.9998         estimate D2E/DX2                !
 ! D8    D(12,1,3,7)            -0.0003         estimate D2E/DX2                !
 ! D9    D(1,2,4,6)              0.0            estimate D2E/DX2                !
 ! D10   D(1,2,4,10)          -180.0            estimate D2E/DX2                !
 ! D11   D(9,2,4,6)            179.9999         estimate D2E/DX2                !
 ! D12   D(9,2,4,10)             0.0            estimate D2E/DX2                !
 ! D13   D(1,3,5,6)             -0.0001         estimate D2E/DX2                !
 ! D14   D(1,3,5,11)          -179.9999         estimate D2E/DX2                !
 ! D15   D(7,3,5,6)           -179.9996         estimate D2E/DX2                !
 ! D16   D(7,3,5,11)             0.0006         estimate D2E/DX2                !
 ! D17   D(2,4,6,5)             -0.0001         estimate D2E/DX2                !
 ! D18   D(2,4,6,13)           179.9999         estimate D2E/DX2                !
 ! D19   D(10,4,6,5)           179.9998         estimate D2E/DX2                !
 ! D20   D(10,4,6,13)           -0.0002         estimate D2E/DX2                !
 ! D21   D(3,5,6,4)              0.0002         estimate D2E/DX2                !
 ! D22   D(3,5,6,13)          -179.9998         estimate D2E/DX2                !
 ! D23   D(11,5,6,4)           179.9999         estimate D2E/DX2                !
 ! D24   D(11,5,6,13)            0.0            estimate D2E/DX2                !
 --------------------------------------------------------------------------------
 Trust Radius=3.00D-01 FncErr=1.00D-07 GrdErr=1.00D-06 EigMax=2.50D+02 EigMin=1.00D-04
 Number of steps in this run=    100 maximum allowed number of steps=    100.
 GradGradGradGradGradGradGradGradGradGradGradGradGradGradGradGradGradGrad

 Leave Link  103 at Sat Aug  8 22:40:05 2020, MaxMem=   524288000 cpu:               0.1 elap:               0.0
 (Enter /home/ubuntu/g16/l202.exe)
                          Input orientation:                          
 ---------------------------------------------------------------------
 Center     Atomic      Atomic             Coordinates (Angstroms)
 Number     Number       Type             X           Y           Z
 ---------------------------------------------------------------------
      1          6           0       -0.623430    1.425460    0.000060
      2          6           0        0.714490    1.809470    0.000060
      3          6           0       -0.887140    0.041520    0.000010
      4          6           0        1.733910    0.849220    0.000010
      5          6           0        0.099830   -0.964450   -0.000040
      6          6           0        1.411930   -0.514270   -0.000040
      7          7           0       -2.212150   -0.361920    0.000020
      8          7           0       -3.279000   -0.680340    0.000020
      9          1           0        0.968540    2.868460    0.000100
     10          1           0        2.783540    1.143450    0.000010
     11          1           0       -0.139120   -2.026220   -0.000080
     12          1           0       -1.433170    2.152610    0.000100
     13          9           0        2.395640   -1.413800   -0.000090
 ---------------------------------------------------------------------
                    Distance matrix (angstroms):
                    1          2          3          4          5
     1  C    0.000000
     2  C    1.391939   0.000000
     3  C    1.408841   2.385554   0.000000
     4  C    2.426748   1.400463   2.742678   0.000000
     5  C    2.496953   2.841204   1.409285   2.441233   0.000000
     6  C    2.811626   2.426147   2.365296   1.400991   1.387180
     7  N    2.391393   3.644195   1.385069   4.127741   2.389204
     8  N    3.389166   4.706072   2.498415   5.241071   3.390754
     9  H    2.148632   1.089037   3.381588   2.159426   3.930122
    10  H    3.418622   2.173603   3.832511   1.090089   3.412556
    11  H    3.485492   3.929525   2.198882   3.431675   1.088326
    12  H    1.088313   2.174900   2.180562   3.424795   3.473637
    13  F    4.144416   3.635345   3.590905   2.357784   2.339371
                    6          7          8          9         10
     6  C    0.000000
     7  N    3.627281   0.000000
     8  N    4.693869   1.113355   0.000000
     9  H    3.411665   4.533447   5.534942   0.000000
    10  H    2.151592   5.217572   6.330924   2.503974   0.000000
    11  H    2.166045   2.658448   3.416173   5.018446   4.311467
    12  H    3.899595   2.632427   3.381227   2.506123   4.335787
    13  F    1.332981   4.726328   5.721844   4.513797   2.586502
                   11         12         13
    11  H    0.000000
    12  H    4.374607   0.000000
    13  F    2.607694   5.232501   0.000000
 Stoichiometry    C6H4FN2(1+)
 Framework group  C1[X(C6H4FN2)]
 Deg. of freedom    33
 Full point group                 C1      NOp   1
 Largest Abelian subgroup         C1      NOp   1
 Largest concise Abelian subgroup C1      NOp   1
                         Standard orientation:                         
 ---------------------------------------------------------------------
 Center     Atomic      Atomic             Coordinates (Angstroms)
 Number     Number       Type             X           Y           Z
 ---------------------------------------------------------------------
      1          6           0       -0.623431    1.425460    0.000061
      2          6           0        0.714489    1.809470    0.000061
      3          6           0       -0.887141    0.041520    0.000011
      4          6           0        1.733909    0.849221    0.000011
      5          6           0        0.099830   -0.964450   -0.000039
      6          6           0        1.411929   -0.514269   -0.000039
      7          7           0       -2.212151   -0.361920    0.000021
      8          7           0       -3.279001   -0.680340    0.000021
      9          1           0        0.968539    2.868460    0.000101
     10          1           0        2.783539    1.143451    0.000011
     11          1           0       -0.139120   -2.026220   -0.000079
     12          1           0       -1.433171    2.152610    0.000101
     13          9           0        2.395640   -1.413799   -0.000089
 ---------------------------------------------------------------------
 Rotational constants (GHZ):           3.3471690           1.2047976           0.8859162
 Leave Link  202 at Sat Aug  8 22:40:05 2020, MaxMem=   524288000 cpu:               0.1 elap:               0.0
 (Enter /home/ubuntu/g16/l301.exe)
 Standard basis: Aug-CC-pVDZ (5D, 7F)
 Ernie: Thresh=  0.10000D-02 Tol=  0.10000D-05 Strict=F.
 Ernie:  18 primitive shells out of 253 were deleted.
 There are   261 symmetry adapted cartesian basis functions of A   symmetry.
 There are   243 symmetry adapted basis functions of A   symmetry.
   243 basis functions,   431 primitive gaussians,   261 cartesian basis functions
    31 alpha electrons       31 beta electrons
       nuclear repulsion energy       390.2029341949 Hartrees.
 IExCor=  402 DFT=T Ex+Corr=B3LYP ExCW=0 ScaHFX=  0.200000
 ScaDFX=  0.800000  0.720000  1.000000  0.810000 ScalE2=  1.000000  1.000000
 IRadAn=      5 IRanWt=     -1 IRanGd=            0 ICorTp=0 IEmpDi=  4
 NAtoms=   13 NActive=   13 NUniq=   13 SFac= 1.00D+00 NAtFMM=   60 NAOKFM=F Big=F
 Integral buffers will be    131072 words long.
 Raffenetti 2 integral format.
 Two-electron integral symmetry is turned on.
 Leave Link  301 at Sat Aug  8 22:40:05 2020, MaxMem=   524288000 cpu:               0.3 elap:               0.1
 (Enter /home/ubuntu/g16/l302.exe)
 NPDir=0 NMtPBC=     1 NCelOv=     1 NCel=       1 NClECP=     1 NCelD=      1
         NCelK=      1 NCelE2=     1 NClLst=     1 CellRange=     0.0.
 One-electron integrals computed using PRISM.
 One-electron integral symmetry used in STVInt
 NBasis=   243 RedAO= T EigKep=  2.54D-06  NBF=   243
 NBsUse=   243 1.00D-06 EigRej= -1.00D+00 NBFU=   243
 Precomputing XC quadrature grid using
 IXCGrd= 4 IRadAn=           5 IRanWt=          -1 IRanGd=           0 AccXCQ= 0.00D+00.
 Generated NRdTot=       0 NPtTot=           0 NUsed=           0 NTot=          32
 NSgBfM=   261   261   261   261   261 MxSgAt=    13 MxSgA2=    13.
 Leave Link  302 at Sat Aug  8 22:40:05 2020, MaxMem=   524288000 cpu:               2.0 elap:               0.3
 (Enter /home/ubuntu/g16/l303.exe)
 DipDrv:  MaxL=1.
 Leave Link  303 at Sat Aug  8 22:40:05 2020, MaxMem=   524288000 cpu:               0.3 elap:               0.1
 (Enter /home/ubuntu/g16/l401.exe)
 ExpMin= 2.97D-02 ExpMax= 1.47D+04 ExpMxC= 5.03D+02 IAcc=3 IRadAn=         5 AccDes= 0.00D+00
 Harris functional with IExCor=  402 and IRadAn=       5 diagonalized for initial guess.
 HarFok:  IExCor=  402 AccDes= 0.00D+00 IRadAn=         5 IDoV= 1 UseB2=F ITyADJ=14
 ICtDFT=  3500011 ScaDFX=  1.000000  1.000000  1.000000  1.000000
 FoFCou: FMM=F IPFlag=           0 FMFlag=      100000 FMFlg1=           0
         NFxFlg=           0 DoJE=T BraDBF=F KetDBF=T FulRan=T
         wScrn=  0.000000 ICntrl=       500 IOpCl=  0 I1Cent=   200000004 NGrid=           0
         NMat0=    1 NMatS0=      1 NMatT0=    0 NMatD0=    1 NMtDS0=    0 NMtDT0=    0
 Petite list used in FoFCou.
 Harris En= -440.150751608444    
 JPrj=0 DoOrth=F DoCkMO=F.
 Initial guess <Sx>= 0.0000 <Sy>= 0.0000 <Sz>= 0.0000 <S**2>=-0.0000 S=-0.0000
 Leave Link  401 at Sat Aug  8 22:40:07 2020, MaxMem=   524288000 cpu:              13.6 elap:               2.0
 (Enter /home/ubuntu/g16/l502.exe)
 Integral symmetry usage will be decided dynamically.
 UHF open shell SCF:
 Using DIIS extrapolation, IDIIS=  1040.
 NGot=   524288000 LenX=   524147472 LenY=   524078910
 Requested convergence on RMS density matrix=1.00D-08 within 128 cycles.
 Requested convergence on MAX density matrix=1.00D-06.
 Requested convergence on             energy=1.00D-06.
 No special actions if energy rises.
 Fock matrices will be formed incrementally for  20 cycles.

 Cycle   1  Pass 1  IDiag  1:
 FoFJK:  IHMeth= 1 ICntrl=       0 DoSepK=F KAlg= 0 I1Cent=           0 FoldK=F
 IRaf= 980000000 NMat=       1 IRICut=       1 DoRegI=T DoRafI=F ISym2E= 0 IDoP0=0 IntGTp=1.
 FoFCou: FMM=F IPFlag=           0 FMFlag=      100000 FMFlg1=           0
         NFxFlg=           0 DoJE=F BraDBF=F KetDBF=F FulRan=T
         wScrn=  0.000000 ICntrl=         0 IOpCl=  1 I1Cent=           0 NGrid=           0
         NMat0=    1 NMatS0=      1 NMatT0=    0 NMatD0=    1 NMtDS0=    0 NMtDT0=    0
 Symmetry not used in FoFCou.
 E= -439.947143919313    
 DIIS: error= 2.18D-02 at cycle   1 NSaved=   1.
 NSaved= 1 IEnMin= 1 EnMin= -439.947143919313     IErMin= 1 ErrMin= 2.18D-02
 ErrMax= 2.18D-02  0.00D+00 EMaxC= 1.00D-01 BMatC= 5.93D-01 BMatP= 5.93D-01
 IDIUse=3 WtCom= 7.82D-01 WtEn= 2.18D-01
 Coeff-Com:  0.100D+01
 Coeff-En:   0.100D+01
 Coeff:      0.100D+01
 Gap=     0.103 Goal=   None    Shift=    0.000
 Gap=     0.103 Goal=   None    Shift=    0.000
 GapD=    0.103 DampG=1.000 DampE=0.500 DampFc=0.5000 IDamp=-1.
 Damping current iteration by 5.00D-01
 RMSDP=3.53D-02 MaxDP=2.14D+00              OVMax= 9.56D-01

 Cycle   2  Pass 1  IDiag  1:
 RMSU=  8.83D-03    CP:  8.26D-01
 E= -439.288066389587     Delta-E=        0.659077529726 Rises=F Damp=T
 DIIS: error= 3.44D-02 at cycle   2 NSaved=   2.
 NSaved= 2 IEnMin= 1 EnMin= -439.947143919313     IErMin= 1 ErrMin= 2.18D-02
 ErrMax= 3.44D-02  0.00D+00 EMaxC= 1.00D-01 BMatC= 1.10D+00 BMatP= 5.93D-01
 IDIUse=2 WtCom= 0.00D+00 WtEn= 1.00D+00
 Coeff-En:   0.852D+00 0.148D+00
 Coeff:      0.852D+00 0.148D+00
 Gap=    -0.059 Goal=   None    Shift=    0.000
 Gap=    -0.059 Goal=   None    Shift=    0.000
 RMSDP=1.83D-02 MaxDP=1.19D+00 DE= 6.59D-01 OVMax= 9.98D-01

 Cycle   3  Pass 1  IDiag  1:
 RMSU=  5.68D-03    CP:  6.37D-01  1.56D+00
 E= -439.960895133647     Delta-E=       -0.672828744060 Rises=F Damp=F
 DIIS: error= 2.45D-02 at cycle   3 NSaved=   3.
 NSaved= 3 IEnMin= 3 EnMin= -439.960895133647     IErMin= 1 ErrMin= 2.18D-02
 ErrMax= 2.45D-02  0.00D+00 EMaxC= 1.00D-01 BMatC= 6.11D-01 BMatP= 5.93D-01
 IDIUse=3 WtCom= 7.55D-01 WtEn= 2.45D-01
 Coeff-Com:  0.498D+00 0.587D-01 0.444D+00
 Coeff-En:   0.482D+00 0.000D+00 0.518D+00
 Coeff:      0.494D+00 0.443D-01 0.462D+00
 Gap=     0.172 Goal=   None    Shift=    0.000
 Gap=     0.172 Goal=   None    Shift=    0.000
 RMSDP=5.55D-03 MaxDP=1.77D-01 DE=-6.73D-01 OVMax= 1.81D-01

 Cycle   4  Pass 1  IDiag  1:
 RMSU=  4.10D-03    CP:  6.40D-01  1.14D+00  1.03D+00
 E= -440.104778782217     Delta-E=       -0.143883648570 Rises=F Damp=F
 DIIS: error= 8.16D-03 at cycle   4 NSaved=   4.
 NSaved= 4 IEnMin= 4 EnMin= -440.104778782217     IErMin= 4 ErrMin= 8.16D-03
 ErrMax= 8.16D-03  0.00D+00 EMaxC= 1.00D-01 BMatC= 7.80D-02 BMatP= 5.93D-01
 IDIUse=3 WtCom= 9.18D-01 WtEn= 8.16D-02
 Coeff-Com:  0.226D+00-0.206D-01 0.317D+00 0.477D+00
 Coeff-En:   0.000D+00 0.000D+00 0.400D-01 0.960D+00
 Coeff:      0.208D+00-0.189D-01 0.295D+00 0.517D+00
 Gap=     0.144 Goal=   None    Shift=    0.000
 Gap=     0.144 Goal=   None    Shift=    0.000
 RMSDP=1.71D-03 MaxDP=6.48D-02 DE=-1.44D-01 OVMax= 5.22D-02

 Cycle   5  Pass 1  IDiag  1:
 RMSU=  1.40D-03    CP:  6.48D-01  1.13D+00  9.83D-01  8.45D-01
 E= -440.116436550043     Delta-E=       -0.011657767825 Rises=F Damp=F
 DIIS: error= 4.05D-03 at cycle   5 NSaved=   5.
 NSaved= 5 IEnMin= 5 EnMin= -440.116436550043     IErMin= 5 ErrMin= 4.05D-03
 ErrMax= 4.05D-03  0.00D+00 EMaxC= 1.00D-01 BMatC= 2.25D-02 BMatP= 7.80D-02
 IDIUse=3 WtCom= 9.60D-01 WtEn= 4.05D-02
 Coeff-Com:  0.417D-01-0.211D-01 0.883D-01 0.371D+00 0.520D+00
 Coeff-En:   0.000D+00 0.000D+00 0.000D+00 0.283D+00 0.717D+00
 Coeff:      0.400D-01-0.202D-01 0.848D-01 0.368D+00 0.528D+00
 Gap=     0.148 Goal=   None    Shift=    0.000
 Gap=     0.148 Goal=   None    Shift=    0.000
 RMSDP=6.40D-04 MaxDP=3.11D-02 DE=-1.17D-02 OVMax= 2.46D-02

 Cycle   6  Pass 1  IDiag  1:
 RMSU=  4.53D-04    CP:  6.47D-01  1.14D+00  9.95D-01  8.41D-01  6.96D-01
 E= -440.120985703101     Delta-E=       -0.004549153058 Rises=F Damp=F
 DIIS: error= 9.99D-04 at cycle   6 NSaved=   6.
 NSaved= 6 IEnMin= 6 EnMin= -440.120985703101     IErMin= 6 ErrMin= 9.99D-04
 ErrMax= 9.99D-04  0.00D+00 EMaxC= 1.00D-01 BMatC= 1.43D-03 BMatP= 2.25D-02
 IDIUse=3 WtCom= 9.90D-01 WtEn= 9.99D-03
 Coeff-Com:  0.131D-01-0.161D-01 0.245D-01 0.160D+00 0.304D+00 0.515D+00
 Coeff-En:   0.000D+00 0.000D+00 0.000D+00 0.000D+00 0.000D+00 0.100D+01
 Coeff:      0.130D-01-0.159D-01 0.242D-01 0.158D+00 0.301D+00 0.519D+00
 Gap=     0.148 Goal=   None    Shift=    0.000
 Gap=     0.148 Goal=   None    Shift=    0.000
 RMSDP=2.66D-04 MaxDP=1.49D-02 DE=-4.55D-03 OVMax= 8.29D-03

 Cycle   7  Pass 1  IDiag  1:
 RMSU=  1.40D-04    CP:  6.45D-01  1.13D+00  9.95D-01  8.56D-01  7.08D-01
                    CP:  6.81D-01
 E= -440.121301811284     Delta-E=       -0.000316108183 Rises=F Damp=F
 DIIS: error= 4.80D-04 at cycle   7 NSaved=   7.
 NSaved= 7 IEnMin= 7 EnMin= -440.121301811284     IErMin= 7 ErrMin= 4.80D-04
 ErrMax= 4.80D-04  0.00D+00 EMaxC= 1.00D-01 BMatC= 2.45D-04 BMatP= 1.43D-03
 IDIUse=3 WtCom= 9.95D-01 WtEn= 4.80D-03
 Coeff-Com:  0.527D-02-0.101D-01 0.403D-03 0.327D-01 0.101D+00 0.276D+00
 Coeff-Com:  0.595D+00
 Coeff-En:   0.000D+00 0.000D+00 0.000D+00 0.000D+00 0.000D+00 0.000D+00
 Coeff-En:   0.100D+01
 Coeff:      0.525D-02-0.100D-01 0.401D-03 0.326D-01 0.101D+00 0.274D+00
 Coeff:      0.597D+00
 Gap=     0.149 Goal=   None    Shift=    0.000
 Gap=     0.149 Goal=   None    Shift=    0.000
 RMSDP=8.97D-05 MaxDP=4.01D-03 DE=-3.16D-04 OVMax= 3.47D-03

 Cycle   8  Pass 1  IDiag  1:
 RMSU=  6.85D-05    CP:  6.45D-01  1.13D+00  9.97D-01  8.57D-01  7.08D-01
                    CP:  6.68D-01  7.02D-01
 E= -440.121354804564     Delta-E=       -0.000052993280 Rises=F Damp=F
 DIIS: error= 2.76D-04 at cycle   8 NSaved=   8.
 NSaved= 8 IEnMin= 8 EnMin= -440.121354804564     IErMin= 8 ErrMin= 2.76D-04
 ErrMax= 2.76D-04  0.00D+00 EMaxC= 1.00D-01 BMatC= 7.02D-05 BMatP= 2.45D-04
 IDIUse=3 WtCom= 9.97D-01 WtEn= 2.76D-03
 Coeff-Com:  0.371D-02-0.545D-02-0.241D-02-0.978D-02-0.342D-03 0.271D-01
 Coeff-Com:  0.280D+00 0.707D+00
 Coeff-En:   0.000D+00 0.000D+00 0.000D+00 0.000D+00 0.000D+00 0.000D+00
 Coeff-En:   0.000D+00 0.100D+01
 Coeff:      0.370D-02-0.544D-02-0.240D-02-0.975D-02-0.341D-03 0.271D-01
 Coeff:      0.279D+00 0.708D+00
 Gap=     0.149 Goal=   None    Shift=    0.000
 Gap=     0.149 Goal=   None    Shift=    0.000
 RMSDP=4.75D-05 MaxDP=1.28D-03 DE=-5.30D-05 OVMax= 2.20D-03

 Cycle   9  Pass 1  IDiag  1:
 RMSU=  3.82D-05    CP:  6.45D-01  1.13D+00  9.99D-01  8.60D-01  6.99D-01
                    CP:  6.73D-01  7.06D-01  9.28D-01
 E= -440.121374775126     Delta-E=       -0.000019970562 Rises=F Damp=F
 DIIS: error= 1.33D-04 at cycle   9 NSaved=   9.
 NSaved= 9 IEnMin= 9 EnMin= -440.121374775126     IErMin= 9 ErrMin= 1.33D-04
 ErrMax= 1.33D-04  0.00D+00 EMaxC= 1.00D-01 BMatC= 1.67D-05 BMatP= 7.02D-05
 IDIUse=3 WtCom= 9.99D-01 WtEn= 1.33D-03
 Coeff-Com:  0.195D-02-0.901D-03-0.275D-03-0.144D-01-0.369D-01-0.100D+00
 Coeff-Com: -0.100D+00 0.425D+00 0.826D+00
 Coeff-En:   0.000D+00 0.000D+00 0.000D+00 0.000D+00 0.000D+00 0.000D+00
 Coeff-En:   0.000D+00 0.000D+00 0.100D+01
 Coeff:      0.195D-02-0.900D-03-0.275D-03-0.144D-01-0.368D-01-0.100D+00
 Coeff:     -0.998D-01 0.424D+00 0.826D+00
 Gap=     0.149 Goal=   None    Shift=    0.000
 Gap=     0.149 Goal=   None    Shift=    0.000
 RMSDP=2.78D-05 MaxDP=7.30D-04 DE=-2.00D-05 OVMax= 1.57D-03

 Cycle  10  Pass 1  IDiag  1:
 RMSU=  1.97D-05    CP:  6.44D-01  1.13D+00  9.99D-01  8.60D-01  6.99D-01
                    CP:  6.63D-01  7.25D-01  1.11D+00  9.69D-01
 E= -440.121380097485     Delta-E=       -0.000005322359 Rises=F Damp=F
 DIIS: error= 3.07D-05 at cycle  10 NSaved=  10.
 NSaved=10 IEnMin=10 EnMin= -440.121380097485     IErMin=10 ErrMin= 3.07D-05
 ErrMax= 3.07D-05  0.00D+00 EMaxC= 1.00D-01 BMatC= 1.40D-06 BMatP= 1.67D-05
 IDIUse=1 WtCom= 1.00D+00 WtEn= 0.00D+00
 Coeff-Com:  0.734D-03-0.568D-04 0.105D-03-0.511D-02-0.173D-01-0.473D-01
 Coeff-Com: -0.785D-01 0.137D+00 0.421D+00 0.590D+00
 Coeff:      0.734D-03-0.568D-04 0.105D-03-0.511D-02-0.173D-01-0.473D-01
 Coeff:     -0.785D-01 0.137D+00 0.421D+00 0.590D+00
 Gap=     0.149 Goal=   None    Shift=    0.000
 Gap=     0.149 Goal=   None    Shift=    0.000
 RMSDP=9.25D-06 MaxDP=3.30D-04 DE=-5.32D-06 OVMax= 2.85D-04

 Cycle  11  Pass 1  IDiag  1:
 RMSU=  6.02D-06    CP:  6.44D-01  1.13D+00  9.99D-01  8.60D-01  6.97D-01
                    CP:  6.59D-01  7.31D-01  1.15D+00  1.03D+00  8.26D-01
 E= -440.121380402414     Delta-E=       -0.000000304930 Rises=F Damp=F
 DIIS: error= 1.05D-05 at cycle  11 NSaved=  11.
 NSaved=11 IEnMin=11 EnMin= -440.121380402414     IErMin=11 ErrMin= 1.05D-05
 ErrMax= 1.05D-05  0.00D+00 EMaxC= 1.00D-01 BMatC= 1.83D-07 BMatP= 1.40D-06
 IDIUse=1 WtCom= 1.00D+00 WtEn= 0.00D+00
 Coeff-Com:  0.120D-03 0.467D-05 0.177D-03-0.290D-03-0.345D-02-0.744D-02
 Coeff-Com: -0.205D-01 0.158D-01 0.852D-01 0.295D+00 0.635D+00
 Coeff:      0.120D-03 0.467D-05 0.177D-03-0.290D-03-0.345D-02-0.744D-02
 Coeff:     -0.205D-01 0.158D-01 0.852D-01 0.295D+00 0.635D+00
 Gap=     0.149 Goal=   None    Shift=    0.000
 Gap=     0.149 Goal=   None    Shift=    0.000
 RMSDP=3.51D-06 MaxDP=1.87D-04 DE=-3.05D-07 OVMax= 7.27D-05

 Cycle  12  Pass 1  IDiag  1:
 RMSU=  2.06D-06    CP:  6.44D-01  1.13D+00  9.99D-01  8.60D-01  6.96D-01
                    CP:  6.62D-01  7.22D-01  1.14D+00  1.02D+00  8.29D-01
                    CP:  8.79D-01
 E= -440.121380440446     Delta-E=       -0.000000038031 Rises=F Damp=F
 DIIS: error= 3.26D-06 at cycle  12 NSaved=  12.
 NSaved=12 IEnMin=12 EnMin= -440.121380440446     IErMin=12 ErrMin= 3.26D-06
 ErrMax= 3.26D-06  0.00D+00 EMaxC= 1.00D-01 BMatC= 1.49D-08 BMatP= 1.83D-07
 IDIUse=1 WtCom= 1.00D+00 WtEn= 0.00D+00
 Coeff-Com:  0.259D-04-0.294D-05 0.123D-03 0.345D-03-0.327D-03 0.265D-03
 Coeff-Com: -0.391D-02-0.208D-02 0.125D-01 0.118D+00 0.331D+00 0.544D+00
 Coeff:      0.259D-04-0.294D-05 0.123D-03 0.345D-03-0.327D-03 0.265D-03
 Coeff:     -0.391D-02-0.208D-02 0.125D-01 0.118D+00 0.331D+00 0.544D+00
 Gap=     0.149 Goal=   None    Shift=    0.000
 Gap=     0.149 Goal=   None    Shift=    0.000
 RMSDP=1.25D-06 MaxDP=9.25D-05 DE=-3.80D-08 OVMax= 2.86D-05

 Cycle  13  Pass 1  IDiag  1:
 RMSU=  7.10D-07    CP:  6.44D-01  1.13D+00  9.99D-01  8.60D-01  6.96D-01
                    CP:  6.62D-01  7.23D-01  1.14D+00  1.02D+00  8.42D-01
                    CP:  8.74D-01  9.91D-01
 E= -440.121380443991     Delta-E=       -0.000000003545 Rises=F Damp=F
 DIIS: error= 7.66D-07 at cycle  13 NSaved=  13.
 NSaved=13 IEnMin=13 EnMin= -440.121380443991     IErMin=13 ErrMin= 7.66D-07
 ErrMax= 7.66D-07  0.00D+00 EMaxC= 1.00D-01 BMatC= 1.06D-09 BMatP= 1.49D-08
 IDIUse=1 WtCom= 1.00D+00 WtEn= 0.00D+00
 Coeff-Com: -0.841D-05-0.373D-05 0.276D-04 0.138D-03 0.293D-03 0.120D-02
 Coeff-Com:  0.145D-02-0.325D-02-0.627D-02 0.103D-01 0.449D-01 0.221D+00
 Coeff-Com:  0.730D+00
 Coeff:     -0.841D-05-0.373D-05 0.276D-04 0.138D-03 0.293D-03 0.120D-02
 Coeff:      0.145D-02-0.325D-02-0.627D-02 0.103D-01 0.449D-01 0.221D+00
 Coeff:      0.730D+00
 Gap=     0.149 Goal=   None    Shift=    0.000
 Gap=     0.149 Goal=   None    Shift=    0.000
 RMSDP=3.17D-07 MaxDP=9.31D-06 DE=-3.55D-09 OVMax= 1.18D-05

 Cycle  14  Pass 1  IDiag  1:
 RMSU=  1.98D-07    CP:  6.44D-01  1.13D+00  9.99D-01  8.60D-01  6.96D-01
                    CP:  6.62D-01  7.23D-01  1.13D+00  1.02D+00  8.45D-01
                    CP:  8.86D-01  1.01D+00  8.25D-01
 E= -440.121380444220     Delta-E=       -0.000000000230 Rises=F Damp=F
 DIIS: error= 3.56D-07 at cycle  14 NSaved=  14.
 NSaved=14 IEnMin=14 EnMin= -440.121380444220     IErMin=14 ErrMin= 3.56D-07
 ErrMax= 3.56D-07  0.00D+00 EMaxC= 1.00D-01 BMatC= 2.43D-10 BMatP= 1.06D-09
 IDIUse=1 WtCom= 1.00D+00 WtEn= 0.00D+00
 Coeff-Com: -0.758D-05-0.113D-05 0.781D-05 0.538D-04 0.202D-03 0.724D-03
 Coeff-Com:  0.114D-02-0.198D-02-0.485D-02-0.254D-02 0.131D-02 0.784D-01
 Coeff-Com:  0.415D+00 0.513D+00
 Coeff:     -0.758D-05-0.113D-05 0.781D-05 0.538D-04 0.202D-03 0.724D-03
 Coeff:      0.114D-02-0.198D-02-0.485D-02-0.254D-02 0.131D-02 0.784D-01
 Coeff:      0.415D+00 0.513D+00
 Gap=     0.149 Goal=   None    Shift=    0.000
 Gap=     0.149 Goal=   None    Shift=    0.000
 RMSDP=1.11D-07 MaxDP=5.68D-06 DE=-2.30D-10 OVMax= 3.31D-06

 Cycle  15  Pass 1  IDiag  1:
 RMSU=  7.34D-08    CP:  6.44D-01  1.13D+00  9.99D-01  8.60D-01  6.96D-01
                    CP:  6.62D-01  7.22D-01  1.13D+00  1.02D+00  8.45D-01
                    CP:  8.90D-01  1.01D+00  8.73D-01  8.75D-01
 E= -440.121380444293     Delta-E=       -0.000000000073 Rises=F Damp=F
 DIIS: error= 1.18D-07 at cycle  15 NSaved=  15.
 NSaved=15 IEnMin=15 EnMin= -440.121380444293     IErMin=15 ErrMin= 1.18D-07
 ErrMax= 1.18D-07  0.00D+00 EMaxC= 1.00D-01 BMatC= 2.31D-11 BMatP= 2.43D-10
 IDIUse=1 WtCom= 1.00D+00 WtEn= 0.00D+00
 Coeff-Com: -0.189D-05-0.285D-06-0.281D-07-0.512D-06 0.479D-04 0.154D-03
 Coeff-Com:  0.304D-03-0.433D-03-0.126D-02-0.326D-02-0.920D-02-0.610D-02
 Coeff-Com:  0.788D-01 0.258D+00 0.683D+00
 Coeff:     -0.189D-05-0.285D-06-0.281D-07-0.512D-06 0.479D-04 0.154D-03
 Coeff:      0.304D-03-0.433D-03-0.126D-02-0.326D-02-0.920D-02-0.610D-02
 Coeff:      0.788D-01 0.258D+00 0.683D+00
 Gap=     0.149 Goal=   None    Shift=    0.000
 Gap=     0.149 Goal=   None    Shift=    0.000
 RMSDP=4.20D-08 MaxDP=2.07D-06 DE=-7.28D-11 OVMax= 1.10D-06

 Cycle  16  Pass 1  IDiag  1:
 RMSU=  1.99D-08    CP:  6.44D-01  1.13D+00  9.99D-01  8.60D-01  6.96D-01
                    CP:  6.62D-01  7.22D-01  1.13D+00  1.02D+00  8.46D-01
                    CP:  8.90D-01  1.02D+00  8.88D-01  9.14D-01  8.55D-01
 E= -440.121380444293     Delta-E=       -0.000000000000 Rises=F Damp=F
 DIIS: error= 2.65D-08 at cycle  16 NSaved=  16.
 NSaved=16 IEnMin=16 EnMin= -440.121380444293     IErMin=16 ErrMin= 2.65D-08
 ErrMax= 2.65D-08  0.00D+00 EMaxC= 1.00D-01 BMatC= 5.95D-13 BMatP= 2.31D-11
 IDIUse=1 WtCom= 1.00D+00 WtEn= 0.00D+00
 Coeff-Com: -0.257D-06-0.762D-07-0.253D-06-0.168D-05 0.558D-05 0.161D-04
 Coeff-Com:  0.424D-04-0.356D-04-0.124D-03-0.730D-03-0.225D-02-0.406D-02
 Coeff-Com:  0.651D-02 0.448D-01 0.202D+00 0.754D+00
 Coeff:     -0.257D-06-0.762D-07-0.253D-06-0.168D-05 0.558D-05 0.161D-04
 Coeff:      0.424D-04-0.356D-04-0.124D-03-0.730D-03-0.225D-02-0.406D-02
 Coeff:      0.651D-02 0.448D-01 0.202D+00 0.754D+00
 Gap=     0.149 Goal=   None    Shift=    0.000
 Gap=     0.149 Goal=   None    Shift=    0.000
 RMSDP=8.71D-09 MaxDP=3.90D-07 DE=-2.27D-13 OVMax= 2.60D-07

 SCF Done:  E(UB3LYP) =  -440.121380444     A.U. after   16 cycles
            NFock= 16  Conv=0.87D-08     -V/T= 2.0062
 <Sx>= 0.0000 <Sy>= 0.0000 <Sz>= 0.0000 <S**2>=-0.0000 S=-0.0000
 <L.S>= 0.000000000000E+00
 KE= 4.374018519179D+02 PE=-1.795747018431D+03 EE= 5.280208518742D+02
 Annihilation of the first spin contaminant:
 S**2 before annihilation    -0.0000,   after     0.0000
 Leave Link  502 at Sat Aug  8 22:42:21 2020, MaxMem=   524288000 cpu:             929.5 elap:             133.4
 (Enter /home/ubuntu/g16/l601.exe)
 Copying SCF densities to generalized density rwf, IOpCl= 1 IROHF=0.

 **********************************************************************

            Population analysis using the SCF density.

 **********************************************************************

 Orbital symmetries:
 Alpha Orbitals:
       Occupied  (A) (A) (A) (A) (A) (A) (A) (A) (A) (A) (A) (A)
                 (A) (A) (A) (A) (A) (A) (A) (A) (A) (A) (A) (A)
                 (A) (A) (A) (A) (A) (A) (A)
       Virtual   (A) (A) (A) (A) (A) (A) (A) (A) (A) (A) (A) (A)
                 (A) (A) (A) (A) (A) (A) (A) (A) (A) (A) (A) (A)
                 (A) (A) (A) (A) (A) (A) (A) (A) (A) (A) (A) (A)
                 (A) (A) (A) (A) (A) (A) (A) (A) (A) (A) (A) (A)
                 (A) (A) (A) (A) (A) (A) (A) (A) (A) (A) (A) (A)
                 (A) (A) (A) (A) (A) (A) (A) (A) (A) (A) (A) (A)
                 (A) (A) (A) (A) (A) (A) (A) (A) (A) (A) (A) (A)
                 (A) (A) (A) (A) (A) (A) (A) (A) (A) (A) (A) (A)
                 (A) (A) (A) (A) (A) (A) (A) (A) (A) (A) (A) (A)
                 (A) (A) (A) (A) (A) (A) (A) (A) (A) (A) (A) (A)
                 (A) (A) (A) (A) (A) (A) (A) (A) (A) (A) (A) (A)
                 (A) (A) (A) (A) (A) (A) (A) (A) (A) (A) (A) (A)
                 (A) (A) (A) (A) (A) (A) (A) (A) (A) (A) (A) (A)
                 (A) (A) (A) (A) (A) (A) (A) (A) (A) (A) (A) (A)
                 (A) (A) (A) (A) (A) (A) (A) (A) (A) (A) (A) (A)
                 (A) (A) (A) (A) (A) (A) (A) (A) (A) (A) (A) (A)
                 (A) (A) (A) (A) (A) (A) (A) (A) (A) (A) (A) (A)
                 (A) (A) (A) (A) (A) (A) (A) (A)
 Beta  Orbitals:
       Occupied  (A) (A) (A) (A) (A) (A) (A) (A) (A) (A) (A) (A)
                 (A) (A) (A) (A) (A) (A) (A) (A) (A) (A) (A) (A)
                 (A) (A) (A) (A) (A) (A) (A)
       Virtual   (A) (A) (A) (A) (A) (A) (A) (A) (A) (A) (A) (A)
                 (A) (A) (A) (A) (A) (A) (A) (A) (A) (A) (A) (A)
                 (A) (A) (A) (A) (A) (A) (A) (A) (A) (A) (A) (A)
                 (A) (A) (A) (A) (A) (A) (A) (A) (A) (A) (A) (A)
                 (A) (A) (A) (A) (A) (A) (A) (A) (A) (A) (A) (A)
                 (A) (A) (A) (A) (A) (A) (A) (A) (A) (A) (A) (A)
                 (A) (A) (A) (A) (A) (A) (A) (A) (A) (A) (A) (A)
                 (A) (A) (A) (A) (A) (A) (A) (A) (A) (A) (A) (A)
                 (A) (A) (A) (A) (A) (A) (A) (A) (A) (A) (A) (A)
                 (A) (A) (A) (A) (A) (A) (A) (A) (A) (A) (A) (A)
                 (A) (A) (A) (A) (A) (A) (A) (A) (A) (A) (A) (A)
                 (A) (A) (A) (A) (A) (A) (A) (A) (A) (A) (A) (A)
                 (A) (A) (A) (A) (A) (A) (A) (A) (A) (A) (A) (A)
                 (A) (A) (A) (A) (A) (A) (A) (A) (A) (A) (A) (A)
                 (A) (A) (A) (A) (A) (A) (A) (A) (A) (A) (A) (A)
                 (A) (A) (A) (A) (A) (A) (A) (A) (A) (A) (A) (A)
                 (A) (A) (A) (A) (A) (A) (A) (A) (A) (A) (A) (A)
                 (A) (A) (A) (A) (A) (A) (A) (A)
 The electronic state is 1-A.
     Natural Orbital Coefficients:
                           1         2         3         4         5
     Eigenvalues --     2.00000   2.00000   2.00000   2.00000   2.00000
   1 1   C  1S         -0.16392   0.02371  -0.00926  -0.01800  -0.01675
   2        2S          0.23903   0.04709   0.07365  -0.01320  -0.07559
   3        3S          0.46202   0.17936   0.13457   0.06601  -0.15600
   4        4S          0.43925  -0.73275  -0.41118   0.38388   0.15092
   5        5PX         0.21092   0.11969  -0.06209   0.18382  -0.10097
   6        5PY        -0.15395   0.07741   0.00219   0.00483  -0.03648
   7        5PZ         0.01985  -0.01435   0.13865   0.01760   0.02344
   8        6PX        -0.08958   0.03347   0.04981   0.07071  -0.10813
   9        6PY        -0.18891  -0.08570  -0.07081   0.12198  -0.06330
  10        6PZ         0.01003  -0.00617   0.04873   0.00063   0.00254
  11        7PX         0.00567  -0.11692  -0.02826   0.05215   0.02321
  12        7PY        -0.10012   0.12325   0.05838  -0.03989  -0.00042
  13        7PZ         0.00089  -0.00072   0.00613   0.00030   0.00083
  14        8D 0       -0.00876   0.00228  -0.00038  -0.00005  -0.00075
  15        8D+1        0.00045  -0.00020   0.00307   0.00051   0.00078
  16        8D-1       -0.00068   0.00072  -0.01031  -0.00202  -0.00247
  17        8D+2       -0.00049   0.01602  -0.00280   0.00513   0.00390
  18        8D-2        0.01474  -0.01689  -0.00410   0.00151  -0.00025
  19        9D 0        0.01061   0.00382   0.00153  -0.00096  -0.00336
  20        9D+1       -0.00082   0.00186  -0.01898  -0.00665  -0.00754
  21        9D-1        0.00005  -0.00043   0.00399   0.00196   0.00214
  22        9D+2       -0.06438  -0.06733  -0.01056   0.02284  -0.01267
  23        9D-2       -0.04831   0.02956   0.03627  -0.03831  -0.01695
  24 2   C  1S         -0.14370   0.11613   0.04997  -0.04523  -0.03481
  25        2S          0.19315  -0.06168  -0.08439   0.04971   0.10944
  26        3S          0.42338   0.14548  -0.18194   0.11597   0.23803
  27        4S         -0.36576   0.85701   0.47720  -0.18054  -0.40683
  28        5PX        -0.18182  -0.11243  -0.03552  -0.09699   0.22120
  29        5PY        -0.02898  -0.36516  -0.01610  -0.06347  -0.06325
  30        5PZ         0.01206  -0.00688   0.09295   0.01544   0.02167
  31        6PX        -0.01108  -0.00196  -0.03217   0.07766   0.02868
  32        6PY        -0.12958   0.09658   0.07952  -0.01670  -0.10539
  33        6PZ         0.00650  -0.00502   0.05819   0.01239   0.01663
  34        7PX        -0.07790   0.02458   0.01868   0.00722   0.01998
  35        7PY         0.07709  -0.10659  -0.08003   0.02736   0.06191
  36        7PZ         0.00005   0.00030  -0.00466  -0.00108  -0.00153
  37        8D 0       -0.00728   0.00172   0.00009   0.00048  -0.00149
  38        8D+1       -0.00104   0.00083  -0.00445  -0.00023  -0.00019
  39        8D-1       -0.00032   0.00012  -0.00557  -0.00104  -0.00154
  40        8D+2        0.00292   0.01822   0.00695   0.01111  -0.01616
  41        8D-2        0.01773  -0.00745  -0.00011   0.00651  -0.01161
  42        9D 0       -0.00554   0.00443  -0.00315   0.00795  -0.00040
  43        9D+1       -0.00058   0.00062  -0.00549  -0.00178  -0.00177
  44        9D-1       -0.00000   0.00011  -0.00321  -0.00061  -0.00114
  45        9D+2        0.02879  -0.08884  -0.04048  -0.03021   0.06910
  46        9D-2       -0.07453   0.06598   0.02792  -0.05392   0.02407
  47 3   C  1S          0.01618   0.02118  -0.03774   0.08991  -0.00266
  48        2S          0.14457  -0.10352  -0.01540   0.00490   0.01918
  49        3S         -0.00797  -0.43716   0.05175   0.02085  -0.03672
  50        4S         -0.42622   0.93754   0.16649  -0.50026   0.21115
  51        5PX         0.01680  -0.02166   0.00796   0.06557  -0.09445
  52        5PY         0.17364  -0.05907   0.06976  -0.05693  -0.00876
  53        5PZ         0.01576  -0.01656   0.23280   0.04869   0.05909
  54        6PX         0.04923  -0.22865   0.12771   0.02054  -0.15049
  55        6PY        -0.14875  -0.02500  -0.15662   0.12976   0.00981
  56        6PZ         0.00653  -0.00601   0.08720   0.01302   0.01761
  57        7PX        -0.03994   0.13195  -0.02096  -0.11467   0.08909
  58        7PY        -0.14681   0.01824   0.09080  -0.07623   0.01961
  59        7PZ         0.00012  -0.00023  -0.00380  -0.00055  -0.00122
  60        8D 0       -0.00720  -0.00092   0.00240  -0.00253  -0.00326
  61        8D+1       -0.00050   0.00192  -0.01071  -0.00650  -0.00649
  62        8D-1        0.00108  -0.00039  -0.00221  -0.00213  -0.00239
  63        8D+2       -0.01242  -0.00256  -0.00906   0.01822  -0.00076
  64        8D-2        0.01429  -0.00003  -0.00511   0.00692   0.00604
  65        9D 0       -0.00888  -0.02258   0.00360   0.00374  -0.00661
  66        9D+1        0.00131  -0.00337   0.04124   0.01463   0.01668
  67        9D-1        0.00129  -0.00147   0.01290   0.00443   0.00438
  68        9D+2        0.08819   0.10407  -0.02431  -0.00816   0.05517
  69        9D-2       -0.05260   0.08342  -0.05998   0.03043   0.01134
  70 4   C  1S         -0.00237   0.07071   0.04877   0.04351   0.00532
  71        2S         -0.01147  -0.00626   0.03718  -0.08706   0.05444
  72        3S         -0.13042   0.15056   0.05038  -0.29079   0.18720
  73        4S          0.27151  -0.47627  -0.43412   0.17441   0.48939
  74        5PX        -0.03320  -0.08765   0.10043   0.07359  -0.30168
  75        5PY        -0.03115   0.09793  -0.02476   0.15448   0.02961
  76        5PZ        -0.00108   0.00317   0.06953   0.01750   0.02698
  77        6PX         0.08580  -0.13342  -0.06556   0.05202   0.02967
  78        6PY        -0.12779   0.04104   0.06540  -0.02519  -0.07129
  79        6PZ        -0.00035   0.00197   0.02931   0.00880   0.01209
  80        7PX        -0.04948   0.14112   0.07670  -0.04764  -0.04797
  81        7PY         0.08031  -0.07648  -0.03751  -0.01078  -0.00261
  82        7PZ        -0.00002  -0.00053   0.00612   0.00202   0.00282
  83        8D 0       -0.00171   0.00278   0.00183  -0.00218  -0.00283
  84        8D+1       -0.00036   0.00018  -0.00555  -0.00104  -0.00155
  85        8D-1        0.00092  -0.00060  -0.00073  -0.00032  -0.00090
  86        8D+2        0.00577   0.02114   0.00483   0.01312  -0.01308
  87        8D-2       -0.00743  -0.00339   0.00318   0.00268  -0.01203
  88        9D 0        0.00238   0.00197   0.00282  -0.01627   0.00303
  89        9D+1       -0.00059  -0.00029   0.00384   0.00147   0.00252
  90        9D-1        0.00023  -0.00011   0.00029   0.00032   0.00005
  91        9D+2        0.02102   0.00230  -0.02007  -0.03931   0.04293
  92        9D-2        0.07684   0.04452  -0.04795   0.01210   0.06371
  93 5   C  1S          0.01157  -0.01986   0.02344  -0.04529  -0.06008
  94        2S          0.03949   0.06227  -0.07513   0.10639  -0.00829
  95        3S         -0.18019   0.10849  -0.14898   0.29064  -0.04897
  96        4S          0.08659  -0.81986  -0.08916   0.19811  -0.13741
  97        5PX        -0.05249  -0.03071  -0.04298   0.17176  -0.03232
  98        5PY        -0.13656  -0.15824  -0.03497   0.16862  -0.07874
  99        5PZ        -0.00399   0.00429   0.11540   0.01960   0.03068
 100        6PX         0.08026  -0.16740   0.17726  -0.05664  -0.09903
 101        6PY        -0.06375   0.12539  -0.04724  -0.01022   0.01923
 102        6PZ        -0.00278   0.00472   0.03347   0.00167   0.00490
 103        7PX         0.07371  -0.07897  -0.02954   0.04573  -0.07026
 104        7PY         0.04585  -0.08033  -0.02265   0.02897   0.00046
 105        7PZ        -0.00037   0.00010   0.00541   0.00075   0.00164
 106        8D 0       -0.00279   0.00152   0.00282  -0.00096  -0.00022
 107        8D+1       -0.00103   0.00088  -0.00404  -0.00070  -0.00028
 108        8D-1        0.00034  -0.00037   0.01004   0.00201   0.00272
 109        8D+2       -0.01113  -0.00122  -0.00596   0.01328  -0.00120
 110        8D-2       -0.00172   0.00163   0.00039  -0.00555   0.00258
 111        9D 0       -0.00471   0.00929  -0.00474   0.01443   0.00050
 112        9D+1       -0.00074   0.00108  -0.01364  -0.00466  -0.00481
 113        9D-1        0.00019   0.00122  -0.01524  -0.00559  -0.00718
 114        9D+2        0.07436   0.04644   0.00627  -0.04281   0.02090
 115        9D-2        0.01355  -0.07317   0.05945  -0.00901  -0.01783
 116 6   C  1S          0.12900   0.04345   0.19000  -0.02654   0.18700
 117        2S         -0.03315  -0.07675  -0.05240   0.04624   0.03215
 118        3S         -0.19003  -0.07721  -0.14948   0.06041   0.02389
 119        4S         -0.07677   0.47642   0.26273  -0.15261  -0.17104
 120        5PX         0.03435   0.00767   0.06062  -0.16203   0.03844
 121        5PY         0.01288  -0.08763   0.03725  -0.19986   0.08119
 122        5PZ        -0.01137   0.00777   0.07444   0.01563   0.03260
 123        6PX         0.09239   0.01519   0.09338  -0.07358  -0.03092
 124        6PY        -0.00684  -0.09266   0.03332  -0.07401  -0.03898
 125        6PZ        -0.00612   0.00372   0.04305   0.01209   0.02030
 126        7PX         0.04664  -0.15336  -0.04245  -0.02973  -0.01185
 127        7PY         0.03561  -0.06240   0.04125  -0.03711  -0.12539
 128        7PZ        -0.00041   0.00141  -0.00644  -0.00145  -0.00254
 129        8D 0        0.00017  -0.00293   0.00182  -0.00355  -0.00029
 130        8D+1       -0.00009  -0.00046  -0.00578  -0.00109  -0.00091
 131        8D-1        0.00031   0.00031   0.00235   0.00089   0.00059
 132        8D+2       -0.01269   0.00002  -0.00727   0.03875  -0.00230
 133        8D-2        0.00382  -0.00311   0.00516  -0.00284  -0.00940
 134        9D 0       -0.00361  -0.00580  -0.00002   0.00069  -0.00103
 135        9D+1        0.00064  -0.00002  -0.01016  -0.00274  -0.00424
 136        9D-1       -0.00072   0.00056   0.00144  -0.00014   0.00090
 137        9D+2        0.02073   0.02918  -0.01916  -0.03868   0.02308
 138        9D-2        0.01955   0.04102  -0.00987  -0.00268  -0.00076
 139 7   N  1S         -0.04462   0.04556   0.07260  -0.06707  -0.06390
 140        2S          0.05195  -0.10183   0.01312   0.10785  -0.04975
 141        3S          0.04866  -0.10971  -0.08544   0.15659   0.03502
 142        4S          0.03642  -0.11132  -0.11444   0.11398   0.05516
 143        5PX        -0.00356   0.04812  -0.11213  -0.04027   0.19884
 144        5PY        -0.01459   0.09218   0.03995  -0.04761  -0.07391
 145        5PZ         0.00678  -0.03663   0.31578   0.15695   0.16630
 146        6PX        -0.02015  -0.13040   0.08165   0.00446  -0.08408
 147        6PY        -0.02028   0.00902   0.06096  -0.01767  -0.10624
 148        6PZ         0.00427  -0.02030   0.17511   0.08519   0.09026
 149        7PX         0.05562  -0.11893   0.07324   0.08079  -0.14660
 150        7PY         0.02272  -0.01531   0.00947   0.02366  -0.04685
 151        7PZ         0.00069  -0.00155   0.01683   0.00633   0.00690
 152        8D 0       -0.00192   0.00482  -0.00358   0.00148   0.00231
 153        8D+1        0.00067   0.00091  -0.00342  -0.00588  -0.00585
 154        8D-1        0.00028   0.00021  -0.00090  -0.00175  -0.00175
 155        8D+2       -0.00115  -0.00201   0.00543  -0.00025  -0.00838
 156        8D-2        0.00738  -0.01064   0.00124  -0.00119   0.00481
 157        9D 0       -0.00882  -0.01667   0.01163   0.00319  -0.01692
 158        9D+1        0.00206  -0.00193   0.02984   0.00578   0.00714
 159        9D-1        0.00072  -0.00070   0.00924   0.00175   0.00221
 160        9D+2        0.00680   0.02560  -0.01969   0.00073   0.02029
 161        9D-2        0.01496   0.00191   0.00109  -0.01113   0.01224
 162 8   N  1S          0.01162   0.02093  -0.05717   0.02442   0.04927
 163        2S         -0.02287  -0.02594   0.13820  -0.09975  -0.07119
 164        3S         -0.09081  -0.11434   0.27334  -0.18076  -0.18635
 165        4S          0.03007  -0.09417   0.15234  -0.01280  -0.18470
 166        5PX         0.06599  -0.14436  -0.00524   0.16718  -0.09334
 167        5PY        -0.01076   0.05313   0.05268   0.03008  -0.15308
 168        5PZ        -0.00259  -0.02393   0.18028   0.12235   0.12717
 169        6PX         0.00347  -0.10733   0.05504   0.04563  -0.09834
 170        6PY        -0.01212   0.00403   0.05035  -0.00036  -0.08777
 171        6PZ        -0.00130  -0.01066   0.08572   0.05686   0.05951
 172        7PX         0.00115  -0.00707   0.01926  -0.01125  -0.01863
 173        7PY        -0.00012  -0.00412   0.00697  -0.00240  -0.00432
 174        7PZ        -0.00074   0.00054  -0.00649  -0.00044  -0.00061
 175        8D 0       -0.00235   0.00508  -0.00148  -0.00597   0.00548
 176        8D+1        0.00027  -0.00264   0.02193   0.01193   0.01256
 177        8D-1        0.00008  -0.00079   0.00655   0.00356   0.00375
 178        8D+2        0.00411  -0.01119  -0.00147   0.01101  -0.00208
 179        8D-2        0.00150   0.00109   0.00583   0.00400  -0.01426
 180        9D 0        0.00181   0.00597  -0.00676   0.00044   0.00799
 181        9D+1        0.00039  -0.00089   0.01063   0.00385   0.00432
 182        9D-1        0.00014  -0.00028   0.00317   0.00115   0.00127
 183        9D+2       -0.00255  -0.00681   0.00643  -0.00047  -0.00860
 184        9D-2       -0.00191  -0.00719   0.01000  -0.00349  -0.00887
 185 9   H  1S          0.06613  -0.36044  -0.07034  -0.05506   0.06454
 186        2S          0.16671  -0.55033  -0.15668  -0.10332   0.18156
 187        3S         -0.01475   0.00477   0.01957  -0.01626  -0.01635
 188        4PX        -0.00577   0.00328   0.00041  -0.00188   0.00394
 189        4PY        -0.00596   0.01612   0.00486   0.00056  -0.00577
 190        4PZ         0.00041  -0.00021   0.00288   0.00044   0.00063
 191        5PX         0.01107   0.02527   0.00873   0.01970  -0.03085
 192        5PY        -0.04107   0.11915   0.03093   0.02713  -0.03611
 193        5PZ         0.00019  -0.00005   0.00049  -0.00009  -0.00003
 194 10  H  1S         -0.03290  -0.02897   0.09122   0.06781  -0.21698
 195        2S         -0.13675   0.08263   0.16617   0.15879  -0.34742
 196        3S          0.00246  -0.01167  -0.01069   0.03504  -0.00055
 197        4PX         0.00147   0.00277  -0.00437   0.00064   0.00629
 198        4PY         0.00021   0.00337  -0.00180   0.00216   0.00359
 199        4PZ        -0.00003   0.00011   0.00214   0.00055   0.00084
 200        5PX         0.03245  -0.02425  -0.03611  -0.04333   0.07857
 201        5PY        -0.00118  -0.01504  -0.00114  -0.02294   0.01002
 202        5PZ         0.00015   0.00026  -0.00238  -0.00083  -0.00125
 203 11  H  1S          0.15203   0.15945  -0.00415  -0.11861   0.07193
 204        2S          0.18869   0.27388   0.00857  -0.26251   0.11856
 205        3S          0.02214  -0.02148   0.01046  -0.01768  -0.02216
 206        4PX         0.00078   0.00201  -0.00117   0.00222  -0.00035
 207        4PY         0.00707   0.00921  -0.00242  -0.00081   0.00308
 208        4PZ        -0.00016   0.00017   0.00364   0.00060   0.00095
 209        5PX         0.01503   0.00132   0.01093  -0.02185   0.00769
 210        5PY         0.03943   0.05278   0.00463  -0.06992   0.02668
 211        5PZ        -0.00022   0.00080  -0.00831  -0.00281  -0.00351
 212 12  H  1S         -0.08967   0.01804   0.07723  -0.10865   0.00971
 213        2S         -0.25859   0.18175   0.15260  -0.17580   0.00611
 214        3S          0.01029  -0.03707  -0.01550   0.01331   0.00735
 215        4PX         0.00360   0.00171   0.00283  -0.00161  -0.00213
 216        4PY        -0.00267   0.00253  -0.00434   0.00603  -0.00006
 217        4PZ         0.00069  -0.00050   0.00448   0.00053   0.00070
 218        5PX        -0.05930   0.02318   0.02467  -0.02961   0.00470
 219        5PY         0.03845  -0.04388  -0.02153   0.02473  -0.00251
 220        5PZ         0.00002   0.00046  -0.00689  -0.00265  -0.00307
 221 13  F  1S          0.01698  -0.02476   0.07800   0.02899  -0.05055
 222        2S         -0.01385   0.01356   0.01174  -0.03459  -0.07355
 223        3S         -0.01626   0.01491   0.01029  -0.04730  -0.08293
 224        4S         -0.01657  -0.02279  -0.03509  -0.00498   0.01308
 225        5PX        -0.07843   0.00889  -0.01559   0.16397   0.09627
 226        5PY        -0.11346   0.06186  -0.07007   0.28814   0.16599
 227        5PZ        -0.00824  -0.00716  -0.00328  -0.00769   0.01305
 228        6PX        -0.05065   0.01205  -0.01213   0.11605   0.06617
 229        6PY        -0.07499   0.03472  -0.04561   0.18378   0.10706
 230        6PZ        -0.00504  -0.00468  -0.00323  -0.00541   0.00764
 231        7PX        -0.00506   0.00806   0.00269   0.03810   0.00495
 232        7PY        -0.02046   0.01185  -0.01947   0.04335   0.03320
 233        7PZ        -0.00028  -0.00147  -0.00165  -0.00119   0.00069
 234        8D 0        0.00021  -0.00049   0.00052  -0.00089   0.00019
 235        8D+1        0.00020  -0.00000  -0.00065  -0.00007  -0.00045
 236        8D-1       -0.00018   0.00000   0.00049   0.00005   0.00039
 237        8D+2        0.00166   0.00024   0.00001  -0.00197  -0.00309
 238        8D-2        0.00098  -0.00039   0.00103  -0.00185  -0.00038
 239        9D 0        0.00101   0.00218   0.00067  -0.00039   0.00027
 240        9D+1        0.00045  -0.00004  -0.00117  -0.00001  -0.00085
 241        9D-1       -0.00039   0.00000   0.00146   0.00015   0.00092
 242        9D+2        0.00287  -0.00070   0.00073  -0.00336  -0.00973
 243        9D-2        0.00125   0.00151   0.00142  -0.00091  -0.00083
                           6         7         8         9        10
     Eigenvalues --     2.00000   2.00000   2.00000   2.00000   2.00000
   1 1   C  1S         -0.02484  -0.08952  -0.17713  -0.06026   0.02885
   2        2S          0.00811   0.09946   0.06400   0.06128  -0.03935
   3        3S          0.03286   0.20241   0.08373  -0.00326  -0.04723
   4        4S         -0.08814  -0.22522  -0.08525  -0.13675   0.11807
   5        5PX        -0.01159  -0.13107   0.03596  -0.14075   0.01537
   6        5PY         0.05087  -0.06646   0.04722   0.06733  -0.01126
   7        5PZ        -0.03900   0.04800  -0.04673  -0.05847   0.12365
   8        6PX         0.02296   0.07252   0.00362   0.04640  -0.04416
   9        6PY        -0.01500  -0.10660  -0.09861   0.03122   0.00740
  10        6PZ        -0.01276   0.03023  -0.02264  -0.03132   0.05688
  11        7PX         0.01470   0.01944   0.04798  -0.00643  -0.01358
  12        7PY         0.02999   0.02311   0.05055  -0.05853  -0.02390
  13        7PZ        -0.00183   0.00191  -0.00412  -0.00373  -0.00050
  14        8D 0        0.00002  -0.00372  -0.00361  -0.00296   0.00143
  15        8D+1       -0.00120   0.00002  -0.00161  -0.00283   0.00163
  16        8D-1        0.00300  -0.00247   0.00273   0.00148  -0.00694
  17        8D+2        0.00209  -0.00184   0.00395  -0.00299  -0.00093
  18        8D-2       -0.00306  -0.00587   0.00121  -0.01700   0.00154
  19        9D 0       -0.00331  -0.00181  -0.00593  -0.00551   0.00214
  20        9D+1        0.00550   0.00467   0.00157  -0.00123  -0.00119
  21        9D-1       -0.00118  -0.00255   0.00040   0.00107  -0.00125
  22        9D+2       -0.00763   0.00925  -0.03412   0.04262  -0.00249
  23        9D-2        0.02077   0.02765   0.01951   0.08641  -0.01729
  24 2   C  1S          0.10328  -0.10692   0.02102  -0.16049  -0.01895
  25        2S          0.01156   0.00115   0.11340   0.00275  -0.01582
  26        3S         -0.01771  -0.02503   0.13804   0.01693  -0.00296
  27        4S          0.13858   0.16868  -0.08380   0.00718  -0.09178
  28        5PX         0.00663   0.10786   0.00235   0.09712  -0.00427
  29        5PY        -0.00984  -0.08077  -0.03481  -0.01731   0.02639
  30        5PZ        -0.03204   0.01186  -0.03903  -0.05989   0.06106
  31        6PX         0.00254   0.11130  -0.04413   0.20263  -0.03808
  32        6PY         0.01317   0.00349  -0.04013  -0.02292   0.00790
  33        6PZ        -0.01975  -0.00229  -0.02280  -0.03058   0.01483
  34        7PX         0.02814   0.01328   0.04490  -0.06051  -0.01114
  35        7PY        -0.03834  -0.02789  -0.01063   0.02039   0.02073
  36        7PZ         0.00150   0.00041   0.00235   0.00016   0.00389
  37        8D 0       -0.00118  -0.00107  -0.00373  -0.00072   0.00085
  38        8D+1        0.00074  -0.00309   0.00067   0.00108  -0.00700
  39        8D-1        0.00217  -0.00032   0.00291   0.00333  -0.00169
  40        8D+2        0.00509   0.00260   0.01096   0.00119  -0.00353
  41        8D-2       -0.00324  -0.00332  -0.00190  -0.00705   0.00094
  42        9D 0        0.00379  -0.00240   0.00846  -0.00060  -0.00102
  43        9D+1        0.00136  -0.00018  -0.00081  -0.00032  -0.00699
  44        9D-1        0.00138   0.00103   0.00293   0.00203   0.00528
  45        9D+2       -0.01579  -0.01172   0.00042   0.00530   0.01444
  46        9D-2        0.00613   0.00393   0.01057  -0.01164   0.00152
  47 3   C  1S          0.03509   0.01317  -0.05101   0.15888  -0.04657
  48        2S         -0.01397   0.01548   0.08122   0.05716  -0.02444
  49        3S         -0.01784   0.16266   0.19490  -0.05665  -0.07488
  50        4S          0.04512  -0.22277   0.14260  -0.36107   0.01647
  51        5PX         0.01751   0.03622  -0.07094   0.26508   0.01024
  52        5PY        -0.03651   0.14241  -0.04608  -0.09359  -0.00434
  53        5PZ        -0.06857   0.04454  -0.05842  -0.03584   0.15048
  54        6PX         0.02790   0.22834  -0.01210   0.03482  -0.08070
  55        6PY        -0.05397  -0.18777  -0.24662   0.06973   0.06053
  56        6PZ        -0.02575   0.02803  -0.03227  -0.02068   0.05185
  57        7PX        -0.03604  -0.06632   0.00980   0.01583   0.02713
  58        7PY         0.02038   0.14405   0.10965   0.08080  -0.05974
  59        7PZ         0.00196   0.00052   0.00398   0.00357   0.00389
  60        8D 0        0.00030   0.00152  -0.00418   0.00448   0.00121
  61        8D+1        0.00230   0.00885  -0.00537  -0.00678   0.00051
  62        8D-1        0.00112   0.00375  -0.00064  -0.00308   0.00470
  63        8D+2        0.00148  -0.01389   0.00949  -0.02249   0.00006
  64        8D-2       -0.00117  -0.00360   0.00801  -0.02690  -0.00044
  65        9D 0        0.00087   0.01222  -0.00247   0.00160  -0.00469
  66        9D+1       -0.01258  -0.01025  -0.00383   0.00154   0.00493
  67        9D-1       -0.00317  -0.00016   0.00234   0.00123   0.01617
  68        9D+2        0.00325  -0.02596  -0.00687   0.03359   0.03013
  69        9D-2       -0.00153  -0.11648  -0.01451   0.09998   0.02973
  70 4   C  1S          0.14023  -0.01434  -0.00849  -0.02608  -0.04504
  71        2S          0.05276  -0.01426   0.06365  -0.04280  -0.00696
  72        3S          0.04756  -0.09177   0.05563  -0.04940   0.01229
  73        4S         -0.20271   0.08756  -0.15476   0.24234   0.07737
  74        5PX         0.05411  -0.07936   0.08739  -0.10002  -0.00194
  75        5PY         0.04461   0.12103   0.16434   0.08468  -0.04229
  76        5PZ        -0.03403  -0.01842  -0.04804  -0.05340  -0.02386
  77        6PX        -0.03506   0.00548  -0.05100   0.04159  -0.00060
  78        6PY        -0.02718   0.04357  -0.03398  -0.02910   0.01467
  79        6PZ        -0.01462  -0.00764  -0.01466  -0.02239   0.01092
  80        7PX         0.01342   0.02568  -0.03155  -0.00184  -0.01593
  81        7PY        -0.01340  -0.06042   0.02309   0.02155   0.01307
  82        7PZ        -0.00226  -0.00367  -0.00340  -0.00127  -0.01040
  83        8D 0       -0.00097   0.00028  -0.00184   0.00245  -0.00012
  84        8D+1        0.00214  -0.00015   0.00294   0.00333  -0.00109
  85        8D-1        0.00103   0.00190   0.00298   0.00067   0.00941
  86        8D+2        0.00346   0.00264   0.00597  -0.00256  -0.00308
  87        8D-2       -0.00001  -0.00627  -0.01295  -0.00597   0.00253
  88        9D 0       -0.00333  -0.00576  -0.00180   0.00512   0.00107
  89        9D+1       -0.00181  -0.00533  -0.00481  -0.00079  -0.02056
  90        9D-1        0.00015   0.00053   0.00173   0.00065   0.00575
  91        9D+2       -0.04226   0.00679  -0.07245   0.03369   0.01578
  92        9D-2       -0.01523   0.00901   0.00419   0.08005  -0.00320
  93 5   C  1S         -0.02197  -0.01782   0.02104  -0.03091  -0.04668
  94        2S         -0.00826  -0.05444  -0.15290   0.13414   0.03568
  95        3S          0.02042  -0.13465  -0.21260   0.26346   0.06043
  96        4S          0.07823  -0.02248   0.28732   0.19322  -0.01126
  97        5PX         0.01695   0.00287  -0.07801  -0.12019   0.02993
  98        5PY         0.05958  -0.01530   0.08613   0.15125  -0.01271
  99        5PZ        -0.04615   0.02553  -0.06753  -0.03920   0.02373
 100        6PX         0.02931   0.26703   0.05969  -0.15238  -0.08109
 101        6PY        -0.02258  -0.09938  -0.07910   0.06529   0.03179
 102        6PZ        -0.01511   0.02417  -0.02507  -0.01668   0.03646
 103        7PX         0.02215  -0.12502  -0.00879  -0.12119   0.03681
 104        7PY        -0.00617   0.02023  -0.00864   0.07155   0.00126
 105        7PZ        -0.00235  -0.00030  -0.00539  -0.00245  -0.00840
 106        8D 0        0.00100   0.00366   0.00506  -0.00453  -0.00162
 107        8D+1        0.00026  -0.00328  -0.00206  -0.00122  -0.01258
 108        8D-1       -0.00341   0.00135  -0.00407  -0.00265   0.00305
 109        8D+2        0.00302  -0.00552   0.00832  -0.00131   0.00058
 110        8D-2       -0.00228  -0.00246  -0.01555  -0.01064   0.00326
 111        9D 0       -0.00200   0.00160   0.00209   0.00382  -0.00012
 112        9D+1        0.00370   0.00012  -0.00138  -0.00180  -0.01442
 113        9D-1        0.00530   0.00832   0.00564   0.00048   0.01857
 114        9D+2       -0.00994   0.00648  -0.06896   0.00129   0.00739
 115        9D-2        0.01031   0.12025   0.09038  -0.01623  -0.04036
 116 6   C  1S          0.88452   0.00165  -0.12957  -0.00340  -0.00727
 117        2S          0.05357  -0.08911  -0.09090  -0.01275   0.05381
 118        3S         -0.10859  -0.23900  -0.19869   0.00291   0.11733
 119        4S          0.00361   0.12574  -0.07238  -0.06728  -0.09452
 120        5PX        -0.00116   0.02280   0.15402  -0.02055  -0.02353
 121        5PY        -0.03726  -0.02578  -0.12284  -0.08000   0.00495
 122        5PZ        -0.04226  -0.03444  -0.09255  -0.05550  -0.17640
 123        6PX        -0.02028   0.14522  -0.01488   0.01494  -0.03723
 124        6PY        -0.04162   0.01728  -0.14488  -0.02697   0.02561
 125        6PZ        -0.02277  -0.02122  -0.04104  -0.02252  -0.07849
 126        7PX         0.01120  -0.11475   0.07799   0.01635   0.02542
 127        7PY         0.03453  -0.12370   0.04142  -0.09515   0.01305
 128        7PZ         0.00185   0.00444   0.00577   0.00125   0.02233
 129        8D 0       -0.00384   0.00234  -0.00454  -0.00466  -0.00155
 130        8D+1        0.00190  -0.00506  -0.00073   0.00047  -0.02017
 131        8D-1       -0.00091   0.00181   0.00209  -0.00121   0.01568
 132        8D+2        0.00339   0.01626   0.00369  -0.00016  -0.00248
 133        8D-2       -0.00462  -0.00505  -0.02655  -0.01969   0.00207
 134        9D 0        0.00923  -0.00549  -0.00081  -0.00768   0.00207
 135        9D+1        0.00438   0.00375   0.00738   0.00341   0.01425
 136        9D-1       -0.00169  -0.00249  -0.00622  -0.00415  -0.01568
 137        9D+2        0.00119  -0.06393  -0.00337   0.01833   0.01058
 138        9D-2       -0.01049  -0.00488   0.04328   0.03488   0.00913
 139 7   N  1S          0.07110  -0.02636  -0.00711  -0.04226   0.15012
 140        2S          0.00534   0.06522  -0.03086  -0.18138  -0.05344
 141        3S         -0.00601  -0.07669   0.05257  -0.32791  -0.04020
 142        4S         -0.03913  -0.09574   0.10530  -0.04048   0.02126
 143        5PX        -0.01295  -0.17297   0.18532  -0.20828   0.02965
 144        5PY        -0.01526  -0.08762   0.12624  -0.05632  -0.01855
 145        5PZ        -0.08682  -0.18417   0.06251   0.10705  -0.00604
 146        6PX         0.00909   0.15972  -0.05997  -0.00812  -0.04992
 147        6PY        -0.00324   0.00941   0.02758   0.01214  -0.03012
 148        6PZ        -0.04785  -0.09644   0.03294   0.05751   0.00324
 149        7PX         0.02389   0.14950  -0.10667   0.07805  -0.03583
 150        7PY         0.00303   0.01077  -0.03875   0.03106  -0.00395
 151        7PZ        -0.00481  -0.00406   0.00034   0.00204   0.00600
 152        8D 0        0.00021  -0.00626   0.00078   0.00096   0.00289
 153        8D+1        0.00086   0.01355  -0.00674  -0.00758   0.01028
 154        8D-1        0.00027   0.00411  -0.00197  -0.00233   0.00335
 155        8D+2        0.00053   0.00362   0.00293   0.00244  -0.00435
 156        8D-2       -0.00119   0.01071  -0.00512  -0.00736  -0.00114
 157        9D 0        0.00202   0.01786  -0.00975  -0.00660  -0.00574
 158        9D+1       -0.00894   0.00707  -0.00823  -0.00580   0.02148
 159        9D-1       -0.00274   0.00191  -0.00279  -0.00200   0.00530
 160        9D+2       -0.00260  -0.03245   0.00965   0.00796   0.00734
 161        9D-2       -0.00127   0.00242   0.01197  -0.00638   0.00069
 162 8   N  1S         -0.00819  -0.04870   0.05204   0.06086  -0.03251
 163        2S         -0.00211   0.19842   0.00337   0.04605  -0.08210
 164        3S          0.00744   0.38081  -0.03799   0.12065  -0.12712
 165        4S          0.03635   0.23193  -0.15001   0.14726  -0.05533
 166        5PX         0.01579   0.10856  -0.21538   0.03869  -0.00598
 167        5PY         0.00382  -0.03017   0.01171   0.05112  -0.02570
 168        5PZ        -0.05026  -0.19688   0.08031   0.10745  -0.08609
 169        6PX         0.01091   0.13004  -0.12806   0.06871  -0.02011
 170        6PY         0.00583   0.02624   0.00314   0.03709  -0.02041
 171        6PZ        -0.02471  -0.09096   0.03459   0.04640  -0.03942
 172        7PX         0.00502   0.02422  -0.01839   0.02002  -0.00502
 173        7PY         0.00211   0.01240  -0.00344   0.00474  -0.00259
 174        7PZ         0.00164  -0.00428   0.00219   0.00150  -0.00794
 175        8D 0       -0.00057  -0.00551   0.00764  -0.00112   0.00162
 176        8D+1       -0.00605  -0.01567   0.00573   0.00888  -0.00302
 177        8D-1       -0.00181  -0.00467   0.00172   0.00265  -0.00088
 178        8D+2        0.00127   0.00931  -0.01441   0.00063  -0.00090
 179        8D-2        0.00002   0.00185  -0.00216   0.00178  -0.00324
 180        9D 0       -0.00060  -0.01057   0.00430  -0.00363   0.00277
 181        9D+1       -0.00319  -0.00259  -0.00054   0.00058   0.00253
 182        9D-1       -0.00093  -0.00072  -0.00007   0.00019   0.00105
 183        9D+2        0.00017   0.01107  -0.00741   0.00809  -0.00229
 184        9D-2        0.00099   0.01422  -0.00083   0.00434  -0.00360
 185 9   H  1S         -0.01191  -0.04268   0.01364   0.00414   0.01645
 186        2S         -0.07184  -0.08600  -0.03400  -0.03668   0.04714
 187        3S          0.00642   0.00484  -0.01247  -0.00091  -0.00175
 188        4PX         0.00013   0.00280  -0.00111   0.00217  -0.00009
 189        4PY        -0.00024   0.00056  -0.00475  -0.00142   0.00013
 190        4PZ        -0.00100   0.00046  -0.00126  -0.00205   0.00216
 191        5PX         0.00383  -0.00179  -0.00171  -0.00171  -0.00313
 192        5PY         0.01956   0.01979   0.01535   0.01506  -0.01076
 193        5PZ        -0.00022   0.00026  -0.00060  -0.00114   0.00045
 194 10  H  1S          0.08006  -0.04791   0.13765  -0.08739  -0.01333
 195        2S          0.15322  -0.05007   0.20472  -0.20383  -0.03660
 196        3S         -0.00039   0.01643   0.00583  -0.00642  -0.00180
 197        4PX        -0.00448   0.00158  -0.00905   0.00284   0.00078
 198        4PY        -0.00011   0.00308   0.00156   0.00385  -0.00084
 199        4PZ        -0.00107  -0.00061  -0.00150  -0.00175  -0.00067
 200        5PX        -0.03289   0.00742  -0.03700   0.04914   0.00791
 201        5PY        -0.01157  -0.00443  -0.02342  -0.00154   0.00546
 202        5PZ         0.00086   0.00205   0.00184  -0.00003   0.00778
 203 11  H  1S         -0.06040  -0.01380  -0.15464  -0.03011   0.02716
 204        2S         -0.08752  -0.08006  -0.26466  -0.08249   0.05118
 205        3S          0.00293  -0.00882   0.00123   0.01495   0.00097
 206        4PX        -0.00069  -0.00149  -0.00340  -0.00339   0.00122
 207        4PY        -0.00245  -0.00118  -0.00799   0.00309   0.00169
 208        4PZ        -0.00148   0.00091  -0.00218  -0.00122   0.00088
 209        5PX        -0.00383   0.01716   0.00406   0.00188  -0.00566
 210        5PY        -0.01928  -0.02286  -0.05640  -0.02740   0.01180
 211        5PZ         0.00270   0.00334   0.00252   0.00058   0.00618
 212 12  H  1S          0.04373   0.10810   0.04558   0.17920  -0.04004
 213        2S          0.08516   0.17382   0.11333   0.27757  -0.07401
 214        3S          0.00183  -0.00175   0.00108   0.01976   0.00238
 215        4PX         0.00190   0.00312   0.00431   0.00462  -0.00190
 216        4PY        -0.00061  -0.00713  -0.00124  -0.00649   0.00186
 217        4PZ        -0.00123   0.00167  -0.00148  -0.00196   0.00427
 218        5PX         0.01297   0.03373   0.01698   0.05229  -0.01254
 219        5PY        -0.01582  -0.01885  -0.02588  -0.03212   0.01136
 220        5PZ         0.00221   0.00242   0.00080  -0.00070   0.00119
 221 13  F  1S          0.05575   0.02556   0.00660  -0.07443  -0.05299
 222        2S          0.05235  -0.04259   0.02251  -0.00569   0.03435
 223        3S          0.05049  -0.05069   0.01402  -0.00719   0.04245
 224        4S         -0.00049  -0.03503   0.01375   0.02654   0.02729
 225        5PX        -0.02001   0.21133  -0.12294  -0.18308  -0.03179
 226        5PY         0.02255   0.25206   0.16141  -0.05453  -0.04341
 227        5PZ        -0.00935  -0.09595  -0.11991  -0.03967  -0.53888
 228        6PX        -0.00845   0.14139  -0.06043  -0.11179  -0.02229
 229        6PY         0.01046   0.16427   0.08755  -0.04288  -0.02706
 230        6PZ        -0.00537  -0.06037  -0.07583  -0.02512  -0.34209
 231        7PX         0.00049   0.03799  -0.01718  -0.03426  -0.00828
 232        7PY        -0.00207   0.03860   0.01351   0.00485  -0.00276
 233        7PZ         0.00018  -0.01005  -0.01107  -0.00274  -0.05746
 234        8D 0       -0.00070   0.00057  -0.00283  -0.00100  -0.00041
 235        8D+1        0.00049   0.00133   0.00209   0.00088   0.00728
 236        8D-1       -0.00042  -0.00126  -0.00187  -0.00083  -0.00668
 237        8D+2        0.00030  -0.00456  -0.00029   0.00316   0.00094
 238        8D-2       -0.00134   0.00035  -0.00493  -0.00165  -0.00051
 239        9D 0        0.00071   0.00146   0.00256   0.00161  -0.00069
 240        9D+1        0.00103   0.00286   0.00484   0.00221   0.01648
 241        9D-1       -0.00105  -0.00264  -0.00436  -0.00196  -0.01466
 242        9D+2        0.00075  -0.01097  -0.00120   0.00683   0.00201
 243        9D-2        0.00174   0.00066   0.00266   0.00154  -0.00106
                          11        12        13        14        15
     Eigenvalues --     2.00000   2.00000   2.00000   2.00000   2.00000
   1 1   C  1S          0.00966  -0.01373   0.22856  -0.01087   0.20309
   2        2S          0.02653  -0.03551   0.07596  -0.07958  -0.01629
   3        3S         -0.08417  -0.13540   0.19060  -0.03889  -0.10931
   4        4S         -0.13516  -0.04508  -0.14552   0.16864   0.11242
   5        5PX        -0.04555  -0.00952  -0.02490   0.08043   0.03453
   6        5PY         0.04171  -0.01625  -0.06676   0.06109  -0.01652
   7        5PZ         0.15934  -0.06969  -0.05042   0.08152   0.03479
   8        6PX        -0.02172   0.01434  -0.19271  -0.00733  -0.02301
   9        6PY         0.00487   0.05981  -0.24461   0.03338   0.03293
  10        6PZ         0.07991  -0.03404  -0.02500   0.04224   0.02164
  11        7PX         0.00081  -0.00684  -0.00998   0.01500   0.01485
  12        7PY         0.02239   0.03321   0.02519  -0.02721   0.01869
  13        7PZ         0.01003  -0.00446  -0.00247   0.00468   0.00056
  14        8D 0       -0.00124   0.00166  -0.00015   0.00241   0.00096
  15        8D+1        0.00370  -0.00345  -0.00380  -0.00091   0.00560
  16        8D-1       -0.00849   0.00225   0.00019  -0.00577   0.00515
  17        8D+2       -0.00289   0.00130  -0.00438   0.00985  -0.00041
  18        8D-2       -0.00485  -0.00719   0.00546  -0.00057   0.00366
  19        9D 0        0.00020  -0.00171   0.01166  -0.00796   0.00248
  20        9D+1       -0.00366   0.00118  -0.00076  -0.00403   0.00319
  21        9D-1       -0.00159   0.00041   0.00041  -0.00049   0.00020
  22        9D+2        0.00488   0.00350  -0.06803  -0.01900  -0.00359
  23        9D-2        0.03364  -0.02417   0.01792  -0.00909  -0.02969
  24 2   C  1S          0.06402   0.25375   0.17887   0.22225  -0.21059
  25        2S          0.00512  -0.03769  -0.00608   0.07574  -0.04759
  26        3S         -0.04932  -0.11840  -0.04367   0.19435  -0.06101
  27        4S          0.09212   0.35074   0.04841  -0.17458   0.00523
  28        5PX         0.02787   0.04771  -0.03173   0.00751  -0.04075
  29        5PY        -0.00487  -0.14810   0.09529  -0.03616  -0.01085
  30        5PZ         0.10220  -0.07383  -0.07361   0.00633   0.09324
  31        6PX        -0.03109  -0.09191  -0.19789   0.03424  -0.09987
  32        6PY         0.04557   0.10214   0.04606  -0.08954   0.04423
  33        6PZ         0.05333  -0.04014  -0.03831   0.00284   0.05016
  34        7PX         0.01553   0.05355   0.00226  -0.02654   0.05174
  35        7PY        -0.02064  -0.05999  -0.01415   0.02330  -0.00131
  36        7PZ        -0.00386   0.00079  -0.00114  -0.00263   0.00551
  37        8D 0       -0.00143  -0.00183  -0.00103  -0.00038   0.00085
  38        8D+1       -0.00569   0.00099  -0.00004  -0.00588   0.00046
  39        8D-1       -0.00594   0.00429   0.00395   0.00043  -0.00299
  40        8D+2        0.00592   0.00075   0.00254  -0.00217  -0.00311
  41        8D-2       -0.00470  -0.01040   0.00579  -0.00253   0.00102
  42        9D 0        0.00044  -0.00257  -0.00364   0.00953  -0.00467
  43        9D+1       -0.00080   0.00003   0.00024  -0.00176  -0.00106
  44        9D-1       -0.00418   0.00287   0.00183   0.00016  -0.00020
  45        9D+2        0.01148  -0.02871   0.04245  -0.01090   0.00096
  46        9D-2        0.02508   0.06431   0.02644  -0.01108   0.02201
  47 3   C  1S          0.17111   0.22821   0.52788   0.48719   0.05633
  48        2S          0.13824   0.08274  -0.05572  -0.09494   0.01247
  49        3S          0.02888   0.03526  -0.32083  -0.17907   0.00393
  50        4S          0.18650  -0.02041   0.24805  -0.14578  -0.04339
  51        5PX         0.02211  -0.01232  -0.01197  -0.00726  -0.05844
  52        5PY        -0.10295  -0.07403   0.19829  -0.07215  -0.00107
  53        5PZ         0.18026  -0.05542  -0.01505   0.11390  -0.08583
  54        6PX        -0.13663   0.02643  -0.12284   0.04053  -0.00743
  55        6PY         0.02144   0.06369  -0.15847   0.03382   0.05120
  56        6PZ         0.09171  -0.02727  -0.00554   0.05663  -0.04676
  57        7PX         0.03107  -0.04889   0.01045  -0.02018  -0.00984
  58        7PY         0.04795  -0.02527   0.04685  -0.06039  -0.01563
  59        7PZ        -0.00587   0.00462   0.00386   0.00176  -0.00150
  60        8D 0       -0.00714  -0.00543   0.00451   0.00502  -0.00269
  61        8D+1        0.01121  -0.00537  -0.00436   0.00029  -0.00174
  62        8D-1        0.00517  -0.00245  -0.00264   0.00317   0.00635
  63        8D+2        0.00642   0.00258  -0.00793   0.00146   0.00936
  64        8D-2       -0.00704   0.00400  -0.00376   0.01002   0.00361
  65        9D 0       -0.01495  -0.00030  -0.00844   0.01762   0.00072
  66        9D+1        0.00757  -0.00397  -0.00073   0.00489  -0.00520
  67        9D-1        0.00075   0.00037  -0.00033   0.00366   0.00267
  68        9D+2        0.03760  -0.04354   0.14837  -0.01184  -0.03550
  69        9D-2        0.08701  -0.02843   0.02564  -0.00727  -0.01738
  70 4   C  1S         -0.07035  -0.12691  -0.07325   0.19085  -0.33531
[...]
 ! R6    R(3,5)                  1.4093         -DE/DX =    0.0                 !
 ! R7    R(3,7)                  1.3851         -DE/DX =    0.0001              !
 ! R8    R(4,6)                  1.401          -DE/DX =    0.0                 !
 ! R9    R(4,10)                 1.0901         -DE/DX =    0.0                 !
 ! R10   R(5,6)                  1.3872         -DE/DX =    0.0                 !
 ! R11   R(5,11)                 1.0883         -DE/DX =    0.0                 !
 ! R12   R(6,13)                 1.333          -DE/DX =    0.0001              !
 ! R13   R(7,8)                  1.1134         -DE/DX =    0.0                 !
 ! A1    A(2,1,3)              116.8029         -DE/DX =    0.0                 !
 ! A2    A(2,1,12)             122.0615         -DE/DX =    0.0                 !
 ! A3    A(3,1,12)             121.1356         -DE/DX =    0.0                 !
 ! A4    A(1,2,4)              120.6974         -DE/DX =    0.0                 !
 ! A5    A(1,2,9)              119.5048         -DE/DX =    0.0                 !
 ! A6    A(4,2,9)              119.7978         -DE/DX =    0.0                 !
 ! A7    A(1,3,5)              124.7578         -DE/DX =    0.0                 !
 ! A8    A(1,3,7)              117.7229         -DE/DX =    0.0                 !
 ! A9    A(5,3,7)              117.5193         -DE/DX =    0.0                 !
 ! A10   A(2,4,6)              120.0014         -DE/DX =    0.0                 !
 ! A11   A(2,4,10)             121.0529         -DE/DX =    0.0                 !
 ! A12   A(6,4,10)             118.9458         -DE/DX =    0.0                 !
 ! A13   A(3,5,6)              115.5167         -DE/DX =    0.0                 !
 ! A14   A(3,5,11)             122.8632         -DE/DX =    0.0                 !
 ! A15   A(6,5,11)             121.6201         -DE/DX =    0.0                 !
 ! A16   A(4,6,5)              122.2237         -DE/DX =    0.0                 !
 ! A17   A(4,6,13)             119.154          -DE/DX =    0.0                 !
 ! A18   A(5,6,13)             118.6224         -DE/DX =    0.0                 !
 ! A19   L(3,7,8,12,-1)        179.6842         -DE/DX =    0.0                 !
 ! A20   L(3,7,8,12,-2)        179.9995         -DE/DX =    0.0                 !
 ! D1    D(3,1,2,4)              0.0001         -DE/DX =    0.0                 !
 ! D2    D(3,1,2,9)           -179.9999         -DE/DX =    0.0                 !
 ! D3    D(12,1,2,4)           179.9999         -DE/DX =    0.0                 !
 ! D4    D(12,1,2,9)            -0.0001         -DE/DX =    0.0                 !
 ! D5    D(2,1,3,5)              0.0            -DE/DX =    0.0                 !
 ! D6    D(2,1,3,7)           -180.0005         -DE/DX =    0.0                 !
 ! D7    D(12,1,3,5)           180.0002         -DE/DX =    0.0                 !
 ! D8    D(12,1,3,7)            -0.0003         -DE/DX =    0.0                 !
 ! D9    D(1,2,4,6)              0.0            -DE/DX =    0.0                 !
 ! D10   D(1,2,4,10)           180.0            -DE/DX =    0.0                 !
 ! D11   D(9,2,4,6)            179.9999         -DE/DX =    0.0                 !
 ! D12   D(9,2,4,10)             0.0            -DE/DX =    0.0                 !
 ! D13   D(1,3,5,6)             -0.0001         -DE/DX =    0.0                 !
 ! D14   D(1,3,5,11)          -179.9999         -DE/DX =    0.0                 !
 ! D15   D(7,3,5,6)            180.0004         -DE/DX =    0.0                 !
 ! D16   D(7,3,5,11)             0.0006         -DE/DX =    0.0                 !
 ! D17   D(2,4,6,5)             -0.0001         -DE/DX =    0.0                 !
 ! D18   D(2,4,6,13)           179.9999         -DE/DX =    0.0                 !
 ! D19   D(10,4,6,5)           179.9998         -DE/DX =    0.0                 !
 ! D20   D(10,4,6,13)           -0.0002         -DE/DX =    0.0                 !
 ! D21   D(3,5,6,4)              0.0002         -DE/DX =    0.0                 !
 ! D22   D(3,5,6,13)          -179.9998         -DE/DX =    0.0                 !
 ! D23   D(11,5,6,4)           179.9999         -DE/DX =    0.0                 !
 ! D24   D(11,5,6,13)            0.0            -DE/DX =    0.0                 !
 --------------------------------------------------------------------------------
 GradGradGradGradGradGradGradGradGradGradGradGradGradGradGradGradGradGrad

 Leave Link  103 at Sat Aug  8 22:55:34 2020, MaxMem=   524288000 cpu:               0.1 elap:               0.0
 (Enter /home/ubuntu/g16/l9999.exe)

 ----------------------------------------------------------------------

 Electric dipole moment (input orientation):
 (Debye = 10**-18 statcoulomb cm , SI units = C m)
                  (au)            (Debye)         (10**-30 SI)
   Tot        0.149582D+01      0.380199D+01      0.126821D+02
   x         -0.132806D+01     -0.337559D+01     -0.112598D+02
   y          0.688278D+00      0.174943D+01      0.583546D+01
   z          0.477679D-04      0.121414D-03      0.404993D-03

 Dipole polarizability, Alpha (input orientation).
 (esu units = cm**3 , SI units = C**2 m**2 J**-1)
 Alpha(0;0):
               (au)            (10**-24 esu)      (10**-40 SI)
   iso        0.834473D+02      0.123656D+02      0.137586D+02
   aniso      0.721107D+02      0.106857D+02      0.118895D+02
   xx         0.122630D+03      0.181719D+02      0.202190D+02
   yx         0.109452D+02      0.162191D+01      0.180462D+01
   yy         0.853510D+02      0.126477D+02      0.140725D+02
   zx        -0.676734D-03     -0.100282D-03     -0.111578D-03
   zy         0.150723D-02      0.223348D-03      0.248509D-03
   zz         0.423606D+02      0.627720D+01      0.698433D+01

 ----------------------------------------------------------------------

 Dipole orientation:
     6          0.85107121          1.64208803          2.28546460
     6          1.68288816          3.24697937          0.37462195
     6         -0.32291807         -0.62301854          1.52453865
     6          1.34942410          2.60357586         -2.17071754
     6         -0.70466214         -1.35957925         -1.00611138
     6          0.16790528          0.32394877         -2.81609671
     7         -1.16455201         -2.24689591          3.39682606
     7         -1.83726615         -3.54481966          4.90990223
     1          2.60213839          5.02057939          0.86920183
     1          1.99657335          3.85217167         -3.67593606
     1         -1.62001625         -3.12566346         -1.52844321
     1          1.08847170          2.10013563          4.27631753
     9         -0.13297310         -0.25657154         -5.24872445

 Electric dipole moment (dipole orientation):
 (Debye = 10**-18 statcoulomb cm , SI units = C m)
                  (au)            (Debye)         (10**-30 SI)
   Tot        0.149582D+01      0.380199D+01      0.126821D+02
   x          0.000000D+00      0.000000D+00      0.000000D+00
   y          0.000000D+00      0.000000D+00      0.000000D+00
   z          0.149582D+01      0.380199D+01      0.126821D+02

 Dipole polarizability, Alpha (dipole orientation).
 (esu units = cm**3 , SI units = C**2 m**2 J**-1)
 Alpha(0;0):
               (au)            (10**-24 esu)      (10**-40 SI)
   iso        0.834473D+02      0.123656D+02      0.137586D+02
   aniso      0.721107D+02      0.106857D+02      0.118895D+02
   xx         0.550287D+02      0.815441D+01      0.907301D+01
   yx         0.244418D+02      0.362190D+01      0.402991D+01
   yy         0.895188D+02      0.132653D+02      0.147597D+02
   zx        -0.991205D+01     -0.146881D+01     -0.163428D+01
   zy        -0.191241D+02     -0.283390D+01     -0.315314D+01
   zz         0.105794D+03      0.156771D+02      0.174432D+02

 ----------------------------------------------------------------------
 1\1\GINC-LC06-SRV\Freq\UB3LYP\Aug-CC-pVDZ\C6H4F1N2(1+)\UBUNTU\08-Aug-2
 020\0\\#P Geom=AllCheck Guess=TCheck SCRF=Check GenChk UB3LYP/Aug-CC-p
 VDZ Freq\\3-FPhN2+_UB3LYP-aug-cc-pVDZ\\1,1\C,-0.62343,1.42546,0.00006\
 C,0.71449,1.80947,0.00006\C,-0.88714,0.04152,0.00001\C,1.73391,0.84922
 ,0.00001\C,0.09983,-0.96445,-0.00004\C,1.41193,-0.51427,-0.00004\N,-2.
 21215,-0.36192,0.00002\N,-3.279,-0.68034,0.00002\H,0.96854,2.86846,0.0
 001\H,2.78354,1.14345,0.00001\H,-0.13912,-2.02622,-0.00008\H,-1.43317,
 2.15261,0.0001\F,2.39564,-1.4138,-0.00009\\Version=ES64L-G16RevA.03\St
 ate=1-A\HF=-440.1213804\S2=0.\S2-1=0.\S2A=0.\RMSD=9.629e-09\RMSF=4.966
 e-05\ZeroPoint=0.0902272\Thermal=0.0972023\Dipole=-1.3280592,0.6882777
 ,0.0000478\DipoleDeriv=0.2471541,-0.0887402,-0.0000063,0.4475542,-0.01
 30138,-0.0000063,0.0000159,0.000001,-0.0094723,-0.3450954,0.195257,0.0
 000113,0.1224962,0.1429259,0.0000067,0.0000089,0.0000055,-0.061358,-0.
 839206,-0.4083915,-0.0000038,-0.3939926,0.1989366,0.0000106,-0.0000059
 ,0.0000095,0.0561353,0.2155364,-0.0178023,-0.0000031,0.1712973,0.07521
 73,-0.0000003,0.0000052,0.0000026,0.0041337,0.1965819,0.4452467,0.0000
 146,-0.2570048,-0.1027531,0.0000007,-0.0000093,-0.0000061,-0.0218037,0
 .8267843,-0.9052601,-0.0000448,-0.996463,0.4689405,0.000027,-0.0000494
 ,0.0000261,0.157458,1.7395095,0.5236353,-0.0000052,0.4983802,0.3062774
 ,-0.0000067,-0.0000031,-0.0000053,0.2602114,-0.6360823,-0.2434016,0.00
 00049,-0.2161239,0.016036,0.0000012,0.0000013,-0.0000001,0.0967146,0.0
 890905,0.0015865,0.0000007,0.0101911,0.0894565,-0.0000021,0.0000001,-0
 .000002,0.1410181,0.1297867,0.0192802,0.0000009,0.0111652,0.115661,-0.
 0000014,0.0000008,-0.0000013,0.1467447,0.0859232,-0.0120004,0.0000007,
 -0.0014918,0.1516895,-0.0000007,0.0000007,-0.000002,0.1743739,0.067442
 9,-0.0101245,0.0000008,-0.0150103,0.1231359,-0.0000012,0.000001,-0.000
 0015,0.1578249,-0.7774258,0.500715,0.0000292,0.6190022,-0.5725096,-0.0
 000274,0.0000338,-0.0000264,-0.1019806\Polar=122.6302855,10.9451954,85
 .3510006,-0.0006767,0.0015072,42.3606474\Quadrupole=6.5580486,1.780529
 4,-8.338578,3.9943685,-0.0000469,0.0003438\PG=C01 [X(C6H4F1N2)]\NImag=
 0\\0.72586943,-0.05871266,0.67402492,-0.00001009,0.00002225,0.12747512
 ,-0.32946582,-0.03419231,0.00000180,0.66527357,-0.09276789,-0.14201364
 ,-0.00000211,0.02791932,0.74233801,-0.00000067,-0.00000292,-0.06320268
 ,-0.00000486,0.00002395,0.13548499,-0.08701258,-0.02120333,-0.00000035
 ,-0.01584604,-0.02881003,-0.00000085,0.53860210,0.01057546,-0.30711360
 ,-0.00000999,-0.07165184,-0.00534199,0.00000053,-0.04838427,0.66444563
 ,0.00000097,-0.00000939,-0.05562594,-0.00000254,-0.00000004,0.00669709
 ,-0.00000800,0.00002121,0.11814875,-0.04905773,0.00936837,0.00000107,-
 0.23794736,0.13574159,0.00000737,-0.00365231,0.01307583,0.00000050,0.7
 4898383,0.04412349,0.05131877,0.00000125,0.07513678,-0.22996235,-0.000
 00746,0.01136306,-0.04542374,-0.00000170,0.01022561,0.66540178,0.00000
 235,0.00000169,0.00605200,0.00000506,-0.00000824,-0.06200489,0.0000004
 4,-0.00000179,-0.00431852,-0.00000664,0.00002080,0.13994635,0.03327803
 ,0.04094629,0.00000126,-0.04838946,0.00448831,0.00000078,-0.16804578,0
 .09223006,0.00000493,0.00764040,-0.06741851,-0.00000264,0.67531000,0.0
 1202277,-0.04237370,-0.00000221,0.01579904,-0.00170176,-0.00000015,0.1
 2183302,-0.23492742,-0.00000842,-0.03542355,-0.00078536,0.00000014,0.0
 3501961,0.75628908,0.00000022,-0.00000259,0.01178652,0.00000115,0.0000
 0002,-0.00264279,0.00000594,-0.00000812,-0.05100579,-0.00000142,0.0000
 0044,0.00742150,-0.00000587,0.00002454,0.11967152,-0.02273982,-0.03394
 120,-0.00000108,0.05227624,0.01802628,0.00000006,-0.05890269,0.0379657
 7,0.00000226,-0.14026148,-0.02628165,-0.00000022,-0.31214987,-0.113061
 94,-0.00000105,0.70372556,-0.02797113,-0.03268754,-0.00000076,0.055394
 25,-0.03937661,-0.00000236,-0.00848144,0.04338037,0.00000159,-0.094955
 51,-0.29617006,-0.00000786,-0.05117357,-0.15296434,-0.00000258,0.00096
 518,0.67373431,-0.00000087,-0.00000064,-0.00394830,0.00000150,-0.00000
 192,0.00237230,0.00000047,0.00000114,0.00194794,-0.00000285,-0.0000087
 4,-0.06945965,0.00000132,-0.00000185,-0.06583965,-0.00000742,0.0000210
 3,0.14881361,-0.05088610,-0.05074275,-0.00000115,0.02097124,-0.0116311
 6,-0.00000069,-0.14418241,-0.00925942,0.00000173,-0.00402619,0.0003064
 5,0.00000005,-0.08553034,-0.00005936,0.00000131,0.00901179,0.02816567,
 0.00000103,1.50961089,-0.05281411,-0.01329462,0.00000064,0.00079762,-0
 .01240182,-0.00000081,-0.01370073,-0.09997581,-0.00000159,0.00121042,-
 0.00696485,-0.00000022,0.00644783,0.02022340,0.00000089,0.00908329,0.0
 0673544,-0.00000022,0.41127568,0.25122870,-0.00000138,0.00000048,-0.00
 698376,-0.00000018,-0.00000067,0.00828979,0.00000137,-0.00000170,-0.04
 550036,0.00000004,-0.00000024,-0.00156584,0.00000133,0.00000098,-0.006
 83474,0.00000033,-0.00000037,0.00823804,-0.00000205,0.00000083,0.09341
 739,0.01125483,0.02195439,0.00000071,-0.00956952,0.00315010,0.00000026
 ,-0.07157183,-0.03178113,-0.00000023,0.00352147,0.00086501,0.,0.020547
 60,-0.00709423,-0.00000052,-0.00576522,-0.01202006,-0.00000037,-1.2573
 9483,-0.36358067,0.00000061,1.31035040,0.00670035,0.00314771,-0.000000
 14,-0.00209329,0.00281403,0.00000020,-0.02885974,0.01395122,0.00000035
 ,0.00046816,0.00171062,0.00000004,0.00469324,-0.00630835,-0.00000048,-
 0.00250646,-0.00308801,0.00000002,-0.36395510,-0.14520881,0.00000043,0
 .38587302,0.13295942,0.00000022,-0.00000031,0.00452338,0.,0.00000017,-
 0.00193174,0.00000031,0.00000051,0.01304899,0.,0.00000005,0.00053206,0
 .00000002,-0.00000029,0.00437212,-0.00000006,0.00000006,-0.00179984,0.
 00000005,0.00000026,-0.04255762,-0.00000056,-0.00000038,0.02287472,-0.
 00411876,-0.02885893,-0.00000106,-0.07183816,-0.06644363,-0.00000235,-
 0.00405977,-0.00071156,0.00000010,0.00827735,0.02372677,0.00000090,-0.
 00068038,0.00060134,0.00000002,-0.00294424,0.00239089,0.00000021,-0.00
 096892,-0.00242641,-0.00000006,-0.00016223,0.00043063,0.00000001,0.074
 74157,0.00056084,-0.00250354,-0.00000027,-0.06666111,-0.33335512,-0.00
 001112,-0.00028056,0.00178555,-0.00000016,-0.00586157,-0.01418977,-0.0
 0000068,0.00045647,0.00026589,0.00000006,0.00276763,0.00011837,-0.0000
 0034,-0.00052140,0.00031669,-0.00000007,0.00035104,-0.00014391,0.00000
 002,0.06952400,0.34710728,0.00000012,0.00000007,0.00410075,-0.00000236
 ,-0.00001115,-0.03935445,0.00000011,-0.00000012,0.00591038,-0.00000027
 ,-0.00000101,0.00439161,0.,0.00000006,-0.00144823,0.00000023,-0.000000
 33,0.00762544,0.00000001,-0.00000005,0.00181256,0.,0.00000002,-0.00062
 680,0.00000228,0.00001216,0.02644376,-0.00121907,0.00269816,0.00000020
 ,-0.01286490,-0.00719157,-0.00000008,0.00130376,0.00052462,0.00000001,
 -0.32537297,-0.07863200,0.00000005,0.00039563,-0.00015036,0.00000004,-
 0.00193195,0.00124730,0.00000017,-0.00104650,-0.00036143,-0.00000001,0
 .00049971,0.00016838,0.,0.00086255,-0.00031008,-0.00000006,0.33922544,
 0.00396674,-0.00273266,-0.00000044,0.02119493,0.01018538,-0.00000006,0
 .00093739,-0.00099339,-0.00000005,-0.07759906,-0.08036180,-0.00000066,
 -0.00102525,-0.00570302,-0.00000042,-0.02996771,-0.00301418,-0.0000001
 1,-0.00030868,-0.00011176,0.00000005,0.00019845,0.00001032,-0.00000002
 ,-0.00010587,0.00092028,0.00000019,0.08205846,0.07865892,0.00000030,-0
 .00000037,0.00705661,0.00000099,0.00000030,0.00576535,0.00000003,-0.00
 000007,0.00003527,0.00000007,-0.00000074,-0.04204231,0.00000002,-0.000
 00045,0.00518511,-0.00000104,-0.00000041,0.00840940,-0.00000001,0.0000
 0005,-0.00134261,0.,-0.00000001,0.00036224,-0.00000005,0.00000020,-0.0
 0384172,-0.00000026,0.00000119,0.02556129,-0.00373672,0.00256278,0.000
 00020,-0.00061249,0.00031634,0.00000001,0.00632766,0.02315642,0.000000
 86,-0.00598634,-0.00072795,0.00000012,-0.07235212,-0.06628744,-0.00000
 218,0.00150146,-0.02918335,-0.00000107,0.00390438,0.00112750,-0.000000
 06,-0.00113287,-0.00008785,0.00000002,0.00005529,-0.00001856,0.,0.0001
 0963,-0.00132614,-0.00000007,0.06903496,0.00316640,0.00088695,-0.00000
 017,-0.00093403,0.00065783,0.00000008,-0.00512423,-0.01142803,-0.00000
 048,-0.00064882,0.00022898,-0.00000020,-0.06544390,-0.33723040,-0.0000
 1140,0.00105153,-0.00254882,-0.00000045,-0.00188055,0.00008505,0.00000
 021,0.00103419,0.00014767,-0.00000004,-0.00003071,-0.00005522,0.000000
 01,0.00012014,-0.00007071,0.00000003,0.06832779,0.34947502,0.00000017,
 -0.00000024,0.00421908,0.00000004,0.00000005,-0.00101209,-0.00000031,-
 0.00000062,0.00170803,0.00000014,-0.00000012,0.00544343,-0.00000206,-0
 .00001160,-0.03294400,0.00000006,-0.00000007,0.00795074,-0.00000018,0.
 00000015,-0.00414918,0.00000005,-0.00000004,0.00085686,0.,0.00000001,-
 0.00040327,0.,0.00000006,-0.00083532,0.00000218,0.00001230,0.02222436,
 -0.21967394,0.14793706,0.00000840,-0.01349309,0.02005371,0.00000106,0.
 00829103,-0.00977711,-0.00000048,-0.00413139,-0.00255459,0.00000004,0.
 00019116,-0.00256770,-0.00000004,-0.00091224,-0.00095316,-0.00000004,0
 .00205869,0.00021646,-0.00000007,-0.00013615,-0.00012895,0.,0.00096639
 ,0.00010760,-0.00000006,-0.00051727,0.00103023,0.00000004,0.00048737,-
 0.00030616,0.,0.22658874,0.14592277,-0.18867201,-0.00000814,-0.0090123
 2,0.01148128,0.00000038,0.02001891,-0.01586632,-0.00000099,-0.00285207
 ,-0.00040458,-0.00000026,-0.00338503,-0.00340015,-0.00000025,0.0000694
 8,-0.00003885,0.00000003,0.00349341,0.00134875,0.00000017,-0.00140242,
 -0.00063736,-0.00000004,0.00003447,0.00065204,0.00000019,-0.00040686,0
 .00048543,0.00000004,0.00092262,-0.00034962,-0.00000008,-0.15316836,0.
 19500930,0.00000842,-0.00000813,-0.03409961,-0.00000022,0.,0.00511382,
 0.00000069,-0.00000066,0.00257462,0.00000002,-0.00000031,0.00694108,-0
 .00000006,-0.00000023,0.00410694,0.00000002,0.00000005,-0.00085704,0.0
 0000006,0.00000022,-0.00430456,-0.00000006,-0.00000006,0.00086801,-0.0
 0000006,0.00000019,-0.00410312,-0.00000002,0.00000003,-0.00047456,0.00
 000004,-0.00000007,0.00149545,-0.00000884,0.00000892,0.02338267,-0.002
 49176,0.00218412,0.00000008,0.00150578,-0.00285137,-0.00000004,-0.0012
 5116,-0.00596284,-0.00000011,0.00201271,0.00986752,0.00000050,-0.05021
 487,0.03936878,0.00000239,-0.22090757,0.13657492,0.00000793,-0.0015217
 1,0.00272455,0.00000015,-0.00044134,-0.00070240,-0.00000003,-0.0001306
 9,-0.00011431,0.,0.00055592,0.00094652,-0.00000002,0.00239977,0.000668
 36,-0.00000008,0.00028069,-0.00023460,-0.00000001,0.27020422,0.0052269
 7,0.00201297,0.00000008,-0.01169707,-0.00332323,-0.00000026,0.00069195
 ,-0.00249246,-0.00000033,0.04725059,-0.04439764,-0.00000276,0.00416444
 ,0.00861614,-0.00000010,0.13582980,-0.19408008,-0.00000793,-0.00488279
 ,-0.00198037,-0.00000009,0.00245232,0.00064542,0.00000002,0.00186902,-
 0.00091854,-0.00000003,0.00023523,0.00272719,0.00000026,0.00121783,0.0
 0020128,0.00000019,0.00011097,0.00039208,0.00000003,-0.18246926,0.2325
 9723,0.00000023,0.00000010,-0.00135317,-0.00000040,-0.00000034,0.00642
 530,0.00000015,-0.00000030,0.00637954,0.00000199,-0.00000223,0.0086632
 0,0.00000096,-0.00000053,0.00817150,0.00000791,-0.00000798,-0.04345298
 ,-0.00000016,-0.00000015,0.00148090,0.00000009,0.00000005,-0.00052239,
 0.00000007,-0.00000001,-0.00050692,-0.00000004,0.00000025,-0.00383874,
 -0.00000004,0.00000018,-0.00455410,0.,0.00000005,-0.00064367,-0.000010
 75,0.00001092,0.02375153\\0.00013351,0.00009925,-0.00000028,-0.0001242
 6,-0.00006155,0.00000011,-0.00011912,-0.00003530,-0.00000065,0.0000543
 0,0.00000938,-0.00000008,-0.00004355,-0.00003251,0.00000024,0.00005057
 ,-0.00005430,0.00000014,0.00011272,0.00004911,0.00000095,-0.00003539,-
 0.00002950,-0.00000038,0.00000419,0.00002032,0.00000007,-0.00001967,0.
 00001196,0.00000004,0.00003597,0.00000093,-0.00000013,-0.00000701,-0.0
 0000823,0.00000004,-0.00004226,0.00003045,-0.00000008\\\@


 EDUCATION DOESN'T COST 
           ... IT PAYS!

 -- POSTMARK, UNIV. OF MISSISSIPPI, DEC 78
 Job cpu time:       0 days  1 hours 29 minutes 25.2 seconds.
 Elapsed time:       0 days  0 hours 12 minutes 50.0 seconds.
 File lengths (MBytes):  RWF=    159 Int=      0 D2E=      0 Chk=      7 Scr=      1
 Normal termination of Gaussian 16 at Sat Aug  8 22:55:34 2020.
