 Entering Gaussian System, Link 0=/home/ubuntu/g16/g16
 Input=3-HOPhN2+_UB3LYP-aug-cc-pVDZ-Opt.gjf
 Output=3-HOPhN2+_UB3LYP-aug-cc-pVDZ-Opt.log
 Initial command:
 /home/ubuntu/g16/l1.exe "/home/ubuntu/g09-linda/scr/Gau-11993.inp" -scrdir="/home/ubuntu/g09-linda/scr/"
 Entering Link 1 = /home/ubuntu/g16/l1.exe PID=     11995.
  
 Copyright (c) 1988,1990,1992,1993,1995,1998,2003,2009,2016,
            Gaussian, Inc.  All Rights Reserved.
  
 This is part of the Gaussian(R) 16 program.  It is based on
 the Gaussian(R) 09 system (copyright 2009, Gaussian, Inc.),
 the Gaussian(R) 03 system (copyright 2003, Gaussian, Inc.),
 the Gaussian(R) 98 system (copyright 1998, Gaussian, Inc.),
 the Gaussian(R) 94 system (copyright 1995, Gaussian, Inc.),
 the Gaussian 92(TM) system (copyright 1992, Gaussian, Inc.),
 the Gaussian 90(TM) system (copyright 1990, Gaussian, Inc.),
 the Gaussian 88(TM) system (copyright 1988, Gaussian, Inc.),
 the Gaussian 86(TM) system (copyright 1986, Carnegie Mellon
 University), and the Gaussian 82(TM) system (copyright 1983,
 Carnegie Mellon University). Gaussian is a federally registered
 trademark of Gaussian, Inc.
  
 This software contains proprietary and confidential information,
 including trade secrets, belonging to Gaussian, Inc.
  
 This software is provided under written license and may be
 used, copied, transmitted, or stored only in accord with that
 written license.
  
 The following legend is applicable only to US Government
 contracts under FAR:
  
                    RESTRICTED RIGHTS LEGEND
  
 Use, reproduction and disclosure by the US Government is
 subject to restrictions as set forth in subparagraphs (a)
 and (c) of the Commercial Computer Software - Restricted
 Rights clause in FAR 52.227-19.
  
 Gaussian, Inc.
 340 Quinnipiac St., Bldg. 40, Wallingford CT 06492
  
  
 ---------------------------------------------------------------
 Warning -- This program may not be used in any manner that
 competes with the business of Gaussian, Inc. or will provide
 assistance to any competitor of Gaussian, Inc.  The licensee
 of this program is prohibited from giving any competitor of
 Gaussian, Inc. access to this program.  By using this program,
 the user acknowledges that Gaussian, Inc. is engaged in the
 business of creating and licensing software in the field of
 computational chemistry and represents and warrants to the
 licensee that it is not a competitor of Gaussian, Inc. and that
 it will not use this program in any manner prohibited above.
 ---------------------------------------------------------------
  

 Cite this work as:
 Gaussian 16, Revision A.03,
 M. J. Frisch, G. W. Trucks, H. B. Schlegel, G. E. Scuseria, 
 M. A. Robb, J. R. Cheeseman, G. Scalmani, V. Barone, 
 G. A. Petersson, H. Nakatsuji, X. Li, M. Caricato, A. V. Marenich, 
 J. Bloino, B. G. Janesko, R. Gomperts, B. Mennucci, H. P. Hratchian, 
 J. V. Ortiz, A. F. Izmaylov, J. L. Sonnenberg, D. Williams-Young, 
 F. Ding, F. Lipparini, F. Egidi, J. Goings, B. Peng, A. Petrone, 
 T. Henderson, D. Ranasinghe, V. G. Zakrzewski, J. Gao, N. Rega, 
 G. Zheng, W. Liang, M. Hada, M. Ehara, K. Toyota, R. Fukuda, 
 J. Hasegawa, M. Ishida, T. Nakajima, Y. Honda, O. Kitao, H. Nakai, 
 T. Vreven, K. Throssell, J. A. Montgomery, Jr., J. E. Peralta, 
 F. Ogliaro, M. J. Bearpark, J. J. Heyd, E. N. Brothers, K. N. Kudin, 
 V. N. Staroverov, T. A. Keith, R. Kobayashi, J. Normand, 
 K. Raghavachari, A. P. Rendell, J. C. Burant, S. S. Iyengar, 
 J. Tomasi, M. Cossi, J. M. Millam, M. Klene, C. Adamo, R. Cammi, 
 J. W. Ochterski, R. L. Martin, K. Morokuma, O. Farkas, 
 J. B. Foresman, and D. J. Fox, Gaussian, Inc., Wallingford CT, 2016.
 
 ******************************************
 Gaussian 16:  ES64L-G16RevA.03 25-Dec-2016
                 8-Aug-2020 
 ******************************************
 %chk=3-HOPhN2+_UB3LYP-aug-cc-pVDZ-Opt.chk
 %mem=500MW
 %nproc=7
 Will use up to    7 processors via shared memory.
 ----------------------------------------------------------------------
 #p opt=(maxcycles=777) freq ub3lyp/aug-cc-pVDZ pop=(Bonding,AllOrbital
 s,mk,no,nboread)
 ----------------------------------------------------------------------
 1/6=777,18=20,19=15,26=3,38=1/1,3;
 2/9=110,12=2,17=6,18=5,40=1/2;
 3/5=16,7=10,11=2,25=1,30=1,71=1,74=-5,116=2/1,2,3;
 4//1;
 5/5=2,38=5/2;
 6/7=2,8=2,9=2,10=2,15=8,20=1,22=-1,27=20,28=1,31=1,40=2,96=-1/1,2,7;
 7//1,2,3,16;
 1/6=777,18=20,19=15,26=3/3(2);
 2/9=110/2;
 99//99;
 2/9=110/2;
 3/5=16,7=10,11=2,25=1,30=1,71=1,74=-5,116=2/1,2,3;
 4/5=5,16=3,69=1/1;
 5/5=2,38=5/2;
 7//1,2,3,16;
 1/6=777,18=20,19=15,26=3/3(-5);
 2/9=110/2;
 6/7=2,8=2,9=2,10=2,15=8,19=2,20=1,22=-1,27=20,28=1,31=1,40=2,96=-1/1,2,7;
 99/9=1/99;
 Leave Link    1 at Sat Aug  8 23:17:06 2020, MaxMem=   524288000 cpu:               0.3 elap:               0.1
 (Enter /home/ubuntu/g16/l101.exe)
 ----------------------------
 3-HOPhN2+_UB3LYP-aug-cc-pVDZ
 ----------------------------
 Symbolic Z-matrix:
 Charge =  1 Multiplicity = 1
 C                    -0.10375  -0.94849   0.00017 
 C                    -1.43005  -0.50495   0.0001 
 C                     0.89621   0.0391   -0.00001 
 C                    -1.70109   0.88002   0.0001 
 C                     0.66451   1.42864  -0.00004 
 C                    -0.66948   1.82488  -0.00003 
 N                     2.21332  -0.38998  -0.00006 
 N                     3.27424  -0.72798   0. 
 H                    -2.73733   1.22251   0.00024 
 H                     1.4854    2.14221  -0.00026 
 H                     0.12822  -2.01165   0.00044 
 H                    -0.91207   2.88656  -0.00007 
 O                    -2.38028  -1.45587  -0.00023 
 H                    -3.27312  -1.08219   0.00013 
 
 ITRead=  0  0  0  0  0  0  0  0  0  0  0  0  0  0
 MicOpt= -1 -1 -1 -1 -1 -1 -1 -1 -1 -1 -1 -1 -1 -1
 NAtoms=     14 NQM=       14 NQMF=       0 NMMI=      0 NMMIF=      0
                NMic=       0 NMicF=      0.
                    Isotopes and Nuclear Properties:
 (Nuclear quadrupole moments (NQMom) in fm**2, nuclear magnetic moments (NMagM)
  in nuclear magnetons)

  Atom         1           2           3           4           5           6           7           8           9          10
 IAtWgt=          12          12          12          12          12          12          14          14           1           1
 AtmWgt=  12.0000000  12.0000000  12.0000000  12.0000000  12.0000000  12.0000000  14.0030740  14.0030740   1.0078250   1.0078250
 NucSpn=           0           0           0           0           0           0           2           2           1           1
 AtZEff=  -0.0000000  -0.0000000  -0.0000000  -0.0000000  -0.0000000  -0.0000000  -0.0000000  -0.0000000  -0.0000000  -0.0000000
 NQMom=    0.0000000   0.0000000   0.0000000   0.0000000   0.0000000   0.0000000   2.0440000   2.0440000   0.0000000   0.0000000
 NMagM=    0.0000000   0.0000000   0.0000000   0.0000000   0.0000000   0.0000000   0.4037610   0.4037610   2.7928460   2.7928460
 AtZNuc=   6.0000000   6.0000000   6.0000000   6.0000000   6.0000000   6.0000000   7.0000000   7.0000000   1.0000000   1.0000000

  Atom        11          12          13          14
 IAtWgt=           1           1          16           1
 AtmWgt=   1.0078250   1.0078250  15.9949146   1.0078250
 NucSpn=           1           1           0           1
 AtZEff=  -0.0000000  -0.0000000  -0.0000000  -0.0000000
 NQMom=    0.0000000   0.0000000   0.0000000   0.0000000
 NMagM=    2.7928460   2.7928460   0.0000000   2.7928460
 AtZNuc=   1.0000000   1.0000000   8.0000000   1.0000000
 Leave Link  101 at Sat Aug  8 23:17:06 2020, MaxMem=   524288000 cpu:               0.6 elap:               0.1
 (Enter /home/ubuntu/g16/l103.exe)

 GradGradGradGradGradGradGradGradGradGradGradGradGradGradGradGradGradGrad
 Berny optimization.
 Initialization pass.
                           ----------------------------
                           !    Initial Parameters    !
                           ! (Angstroms and Degrees)  !
 --------------------------                            --------------------------
 ! Name  Definition              Value          Derivative Info.                !
 --------------------------------------------------------------------------------
 ! R1    R(1,2)                  1.3985         estimate D2E/DX2                !
 ! R2    R(1,3)                  1.4054         estimate D2E/DX2                !
 ! R3    R(1,11)                 1.0882         estimate D2E/DX2                !
 ! R4    R(2,4)                  1.4112         estimate D2E/DX2                !
 ! R5    R(2,13)                 1.3443         estimate D2E/DX2                !
 ! R6    R(3,5)                  1.4087         estimate D2E/DX2                !
 ! R7    R(3,7)                  1.3852         estimate D2E/DX2                !
 ! R8    R(4,6)                  1.3989         estimate D2E/DX2                !
 ! R9    R(4,9)                  1.0914         estimate D2E/DX2                !
 ! R10   R(5,6)                  1.3916         estimate D2E/DX2                !
 ! R11   R(5,10)                 1.0877         estimate D2E/DX2                !
 ! R12   R(6,12)                 1.089          estimate D2E/DX2                !
 ! R13   R(7,8)                  1.1135         estimate D2E/DX2                !
 ! R14   R(13,14)                0.9679         estimate D2E/DX2                !
 ! A1    A(2,1,3)              116.8657         estimate D2E/DX2                !
 ! A2    A(2,1,11)             120.7993         estimate D2E/DX2                !
 ! A3    A(3,1,11)             122.335          estimate D2E/DX2                !
 ! A4    A(1,2,4)              119.5638         estimate D2E/DX2                !
 ! A5    A(1,2,13)             116.4883         estimate D2E/DX2                !
 ! A6    A(4,2,13)             123.9479         estimate D2E/DX2                !
 ! A7    A(1,3,5)              125.1767         estimate D2E/DX2                !
 ! A8    A(1,3,7)              117.3123         estimate D2E/DX2                !
 ! A9    A(5,3,7)              117.511          estimate D2E/DX2                !
 ! A10   A(2,4,6)              121.4139         estimate D2E/DX2                !
 ! A11   A(2,4,9)              119.3622         estimate D2E/DX2                !
 ! A12   A(6,4,9)              119.2238         estimate D2E/DX2                !
 ! A13   A(3,5,6)              116.0099         estimate D2E/DX2                !
 ! A14   A(3,5,10)             121.5325         estimate D2E/DX2                !
 ! A15   A(6,5,10)             122.4576         estimate D2E/DX2                !
 ! A16   A(4,6,5)              120.97           estimate D2E/DX2                !
 ! A17   A(4,6,12)             119.6159         estimate D2E/DX2                !
 ! A18   A(5,6,12)             119.4141         estimate D2E/DX2                !
 ! A19   A(2,13,14)            112.2684         estimate D2E/DX2                !
 ! A20   L(3,7,8,10,-1)        179.6272         estimate D2E/DX2                !
 ! A21   L(3,7,8,10,-2)        179.9938         estimate D2E/DX2                !
 ! D1    D(3,1,2,4)             -0.0113         estimate D2E/DX2                !
 ! D2    D(3,1,2,13)           179.976          estimate D2E/DX2                !
 ! D3    D(11,1,2,4)           179.9835         estimate D2E/DX2                !
 ! D4    D(11,1,2,13)           -0.0291         estimate D2E/DX2                !
 ! D5    D(2,1,3,5)              0.0106         estimate D2E/DX2                !
 ! D6    D(2,1,3,7)           -179.9945         estimate D2E/DX2                !
 ! D7    D(11,1,3,5)          -179.9841         estimate D2E/DX2                !
 ! D8    D(11,1,3,7)             0.0107         estimate D2E/DX2                !
 ! D9    D(1,2,4,6)              0.0095         estimate D2E/DX2                !
 ! D10   D(1,2,4,9)           -179.9883         estimate D2E/DX2                !
 ! D11   D(13,2,4,6)          -179.9768         estimate D2E/DX2                !
 ! D12   D(13,2,4,9)             0.0254         estimate D2E/DX2                !
 ! D13   D(1,2,13,14)          179.975          estimate D2E/DX2                !
 ! D14   D(4,2,13,14)           -0.0383         estimate D2E/DX2                !
 ! D15   D(1,3,5,6)             -0.0071         estimate D2E/DX2                !
 ! D16   D(1,3,5,10)          -179.9953         estimate D2E/DX2                !
 ! D17   D(7,3,5,6)            179.9981         estimate D2E/DX2                !
 ! D18   D(7,3,5,10)             0.0099         estimate D2E/DX2                !
 ! D19   D(2,4,6,5)             -0.006          estimate D2E/DX2                !
 ! D20   D(2,4,6,12)           179.9974         estimate D2E/DX2                !
 ! D21   D(9,4,6,5)            179.9918         estimate D2E/DX2                !
 ! D22   D(9,4,6,12)            -0.0048         estimate D2E/DX2                !
 ! D23   D(3,5,6,4)              0.0044         estimate D2E/DX2                !
 ! D24   D(3,5,6,12)          -179.9989         estimate D2E/DX2                !
 ! D25   D(10,5,6,4)           179.9925         estimate D2E/DX2                !
 ! D26   D(10,5,6,12)           -0.0108         estimate D2E/DX2                !
 --------------------------------------------------------------------------------
 Trust Radius=3.00D-01 FncErr=1.00D-07 GrdErr=1.00D-06 EigMax=2.50D+02 EigMin=1.00D-04
 Number of steps in this run=    100 maximum allowed number of steps=    100.
 GradGradGradGradGradGradGradGradGradGradGradGradGradGradGradGradGradGrad

 Leave Link  103 at Sat Aug  8 23:17:07 2020, MaxMem=   524288000 cpu:               0.1 elap:               0.0
 (Enter /home/ubuntu/g16/l202.exe)
                          Input orientation:                          
 ---------------------------------------------------------------------
 Center     Atomic      Atomic             Coordinates (Angstroms)
 Number     Number       Type             X           Y           Z
 ---------------------------------------------------------------------
      1          6           0       -0.103750   -0.948490    0.000170
      2          6           0       -1.430050   -0.504950    0.000100
      3          6           0        0.896210    0.039100   -0.000010
      4          6           0       -1.701090    0.880020    0.000100
      5          6           0        0.664510    1.428640   -0.000040
      6          6           0       -0.669480    1.824880   -0.000030
      7          7           0        2.213320   -0.389980   -0.000060
      8          7           0        3.274240   -0.727980    0.000000
      9          1           0       -2.737330    1.222510    0.000240
     10          1           0        1.485400    2.142210   -0.000260
     11          1           0        0.128220   -2.011650    0.000440
     12          1           0       -0.912070    2.886560   -0.000070
     13          8           0       -2.380280   -1.455870   -0.000230
     14          1           0       -3.273120   -1.082190    0.000130
 ---------------------------------------------------------------------
                    Distance matrix (angstroms):
                    1          2          3          4          5
     1  C    0.000000
     2  C    1.398499   0.000000
     3  C    1.405437   2.389032   0.000000
     4  C    2.427951   1.411242   2.730039   0.000000
     5  C    2.498193   2.850606   1.408725   2.428384   0.000000
     6  C    2.830483   2.450831   2.374952   1.398921   1.391595
     7  N    2.383432   3.645184   1.385239   4.115277   2.388764
     8  N    3.385180   4.709574   2.498687   5.228726   3.385513
     9  H    3.413061   2.166356   3.821397   1.091372   3.408079
    10  H    3.475316   3.937932   2.184083   3.427367   1.087678
    11  H    1.088172   2.167568   2.189837   3.421715   3.481839
    12  H    3.919310   3.430837   3.373115   2.156097   2.147355
    13  O    2.332386   1.344316   3.601433   2.432628   4.194180
    14  H    3.172189   1.931350   4.317477   2.514269   4.670032
                    6          7          8          9         10
     6  C    0.000000
     7  N    3.635401   0.000000
     8  N    4.697874   1.113461   0.000000
     9  H    2.153800   5.206636   6.320078   0.000000
    10  H    2.178120   2.634740   3.382002   4.321724   0.000000
    11  H    3.918582   2.641487   3.397830   4.321015   4.369953
    12  H    1.089043   4.528110   5.530831   2.469947   2.510362
    13  O    3.700021   4.715642   5.701177   2.702074   5.281066
    14  H    3.902563   5.529935   6.556934   2.366160   5.748066
                   11         12         13         14
    11  H    0.000000
    12  H    5.007461   0.000000
    13  O    2.569331   4.583922   0.000000
    14  H    3.526047   4.617958   0.967884   0.000000
 Stoichiometry    C6H5N2O(1+)
 Framework group  C1[X(C6H5N2O)]
 Deg. of freedom    36
 Full point group                 C1      NOp   1
 Largest Abelian subgroup         C1      NOp   1
 Largest concise Abelian subgroup C1      NOp   1
                         Standard orientation:                         
 ---------------------------------------------------------------------
 Center     Atomic      Atomic             Coordinates (Angstroms)
 Number     Number       Type             X           Y           Z
 ---------------------------------------------------------------------
      1          6           0       -0.103749   -0.948489    0.000171
      2          6           0       -1.430048   -0.504948    0.000101
      3          6           0        0.896212    0.039100   -0.000009
      4          6           0       -1.701088    0.880022    0.000101
      5          6           0        0.664513    1.428640   -0.000039
      6          6           0       -0.669477    1.824881   -0.000029
      7          7           0        2.213322   -0.389981   -0.000059
      8          7           0        3.274241   -0.727982    0.000001
      9          1           0       -2.737327    1.222512    0.000241
     10          1           0        1.485403    2.142210   -0.000259
     11          1           0        0.128221   -2.011649    0.000441
     12          1           0       -0.912066    2.886561   -0.000069
     13          8           0       -2.380279   -1.455868   -0.000229
     14          1           0       -3.273119   -1.082187    0.000131
 ---------------------------------------------------------------------
 Rotational constants (GHZ):           3.3517653           1.2318836           0.9008074
 Leave Link  202 at Sat Aug  8 23:17:07 2020, MaxMem=   524288000 cpu:               0.1 elap:               0.0
 (Enter /home/ubuntu/g16/l301.exe)
 Standard basis: Aug-CC-pVDZ (5D, 7F)
 Ernie: Thresh=  0.10000D-02 Tol=  0.10000D-05 Strict=F.
 Ernie:  18 primitive shells out of 260 were deleted.
 There are   270 symmetry adapted cartesian basis functions of A   symmetry.
 There are   252 symmetry adapted basis functions of A   symmetry.
   252 basis functions,   442 primitive gaussians,   270 cartesian basis functions
    31 alpha electrons       31 beta electrons
       nuclear repulsion energy       391.9501849872 Hartrees.
 IExCor=  402 DFT=T Ex+Corr=B3LYP ExCW=0 ScaHFX=  0.200000
 ScaDFX=  0.800000  0.720000  1.000000  0.810000 ScalE2=  1.000000  1.000000
 IRadAn=      5 IRanWt=     -1 IRanGd=            0 ICorTp=0 IEmpDi=  4
 NAtoms=   14 NActive=   14 NUniq=   14 SFac= 1.00D+00 NAtFMM=   60 NAOKFM=F Big=F
 Integral buffers will be    131072 words long.
 Raffenetti 2 integral format.
 Two-electron integral symmetry is turned on.
 Leave Link  301 at Sat Aug  8 23:17:07 2020, MaxMem=   524288000 cpu:               0.2 elap:               0.0
 (Enter /home/ubuntu/g16/l302.exe)
 NPDir=0 NMtPBC=     1 NCelOv=     1 NCel=       1 NClECP=     1 NCelD=      1
         NCelK=      1 NCelE2=     1 NClLst=     1 CellRange=     0.0.
 One-electron integrals computed using PRISM.
 One-electron integral symmetry used in STVInt
 NBasis=   252 RedAO= T EigKep=  2.35D-06  NBF=   252
 NBsUse=   252 1.00D-06 EigRej= -1.00D+00 NBFU=   252
 Precomputing XC quadrature grid using
 IXCGrd= 4 IRadAn=           5 IRanWt=          -1 IRanGd=           0 AccXCQ= 0.00D+00.
 Generated NRdTot=       0 NPtTot=           0 NUsed=           0 NTot=          32
 NSgBfM=   270   270   270   270   270 MxSgAt=    14 MxSgA2=    14.
 Leave Link  302 at Sat Aug  8 23:17:07 2020, MaxMem=   524288000 cpu:               2.0 elap:               0.3
 (Enter /home/ubuntu/g16/l303.exe)
 DipDrv:  MaxL=1.
 Leave Link  303 at Sat Aug  8 23:17:07 2020, MaxMem=   524288000 cpu:               0.2 elap:               0.0
 (Enter /home/ubuntu/g16/l401.exe)
 ExpMin= 2.97D-02 ExpMax= 1.17D+04 ExpMxC= 4.01D+02 IAcc=3 IRadAn=         5 AccDes= 0.00D+00
 Harris functional with IExCor=  402 and IRadAn=       5 diagonalized for initial guess.
 HarFok:  IExCor=  402 AccDes= 0.00D+00 IRadAn=         5 IDoV= 1 UseB2=F ITyADJ=14
 ICtDFT=  3500011 ScaDFX=  1.000000  1.000000  1.000000  1.000000
 FoFCou: FMM=F IPFlag=           0 FMFlag=      100000 FMFlg1=           0
         NFxFlg=           0 DoJE=T BraDBF=F KetDBF=T FulRan=T
         wScrn=  0.000000 ICntrl=       500 IOpCl=  0 I1Cent=   200000004 NGrid=           0
         NMat0=    1 NMatS0=      1 NMatT0=    0 NMatD0=    1 NMtDS0=    0 NMtDT0=    0
 Petite list used in FoFCou.
 Harris En= -416.158608109926    
 JPrj=0 DoOrth=F DoCkMO=F.
 Initial guess <Sx>= 0.0000 <Sy>= 0.0000 <Sz>= 0.0000 <S**2>=-0.0000 S=-0.0000
 Leave Link  401 at Sat Aug  8 23:17:09 2020, MaxMem=   524288000 cpu:              15.1 elap:               2.2
 (Enter /home/ubuntu/g16/l502.exe)
 Integral symmetry usage will be decided dynamically.
 UHF open shell SCF:
 Using DIIS extrapolation, IDIIS=  1040.
 NGot=   524288000 LenX=   524137754 LenY=   524064413
 Requested convergence on RMS density matrix=1.00D-08 within 128 cycles.
 Requested convergence on MAX density matrix=1.00D-06.
 Requested convergence on             energy=1.00D-06.
 No special actions if energy rises.
 Fock matrices will be formed incrementally for  20 cycles.

 Cycle   1  Pass 1  IDiag  1:
 FoFJK:  IHMeth= 1 ICntrl=       0 DoSepK=F KAlg= 0 I1Cent=           0 FoldK=F
 IRaf= 980000000 NMat=       1 IRICut=       1 DoRegI=T DoRafI=F ISym2E= 0 IDoP0=0 IntGTp=1.
 FoFCou: FMM=F IPFlag=           0 FMFlag=      100000 FMFlg1=           0
         NFxFlg=           0 DoJE=F BraDBF=F KetDBF=F FulRan=T
         wScrn=  0.000000 ICntrl=         0 IOpCl=  1 I1Cent=           0 NGrid=           0
         NMat0=    1 NMatS0=      1 NMatT0=    0 NMatD0=    1 NMtDS0=    0 NMtDT0=    0
 Symmetry not used in FoFCou.
 E= -415.919721120559    
 DIIS: error= 2.27D-02 at cycle   1 NSaved=   1.
 NSaved= 1 IEnMin= 1 EnMin= -415.919721120559     IErMin= 1 ErrMin= 2.27D-02
 ErrMax= 2.27D-02  0.00D+00 EMaxC= 1.00D-01 BMatC= 7.20D-01 BMatP= 7.20D-01
 IDIUse=3 WtCom= 7.73D-01 WtEn= 2.27D-01
 Coeff-Com:  0.100D+01
 Coeff-En:   0.100D+01
 Coeff:      0.100D+01
 Gap=     0.060 Goal=   None    Shift=    0.000
 Gap=     0.060 Goal=   None    Shift=    0.000
 GapD=    0.060 DampG=0.500 DampE=0.500 DampFc=0.2500 IDamp=-1.
 Damping current iteration by 2.50D-01
 RMSDP=4.01D-02 MaxDP=2.47D+00              OVMax= 9.42D-01

 Cycle   2  Pass 1  IDiag  1:
 RMSU=  4.69D-03    CP:  9.18D-01
 E= -415.808992159229     Delta-E=        0.110728961330 Rises=F Damp=T
 DIIS: error= 1.06D-02 at cycle   2 NSaved=   2.
 NSaved= 2 IEnMin= 1 EnMin= -415.919721120559     IErMin= 2 ErrMin= 1.06D-02
 ErrMax= 1.06D-02  0.00D+00 EMaxC= 1.00D-01 BMatC= 1.90D-01 BMatP= 7.20D-01
 IDIUse=3 WtCom= 8.94D-01 WtEn= 1.06D-01
 Coeff-Com:  0.160D+00 0.840D+00
 Coeff-En:   0.694D+00 0.306D+00
 Coeff:      0.216D+00 0.784D+00
 Gap=    -0.081 Goal=   None    Shift=    0.000
 Gap=    -0.081 Goal=   None    Shift=    0.000
 RMSDP=3.30D-02 MaxDP=2.25D+00 DE= 1.11D-01 OVMax= 9.66D-01

 Cycle   3  Pass 1  IDiag  1:
 RMSU=  9.07D-03    CP:  6.30D-01  2.34D+00
 E= -415.963783591040     Delta-E=       -0.154791431810 Rises=F Damp=F
 DIIS: error= 2.65D-02 at cycle   3 NSaved=   3.
 NSaved= 3 IEnMin= 3 EnMin= -415.963783591040     IErMin= 2 ErrMin= 1.06D-02
 ErrMax= 2.65D-02  0.00D+00 EMaxC= 1.00D-01 BMatC= 5.04D-01 BMatP= 1.90D-01
 IDIUse=2 WtCom= 0.00D+00 WtEn= 1.00D+00
 EnCoef did     2 forward-backward iterations
 Coeff-En:   0.204D+00 0.213D+00 0.583D+00
 Coeff:      0.204D+00 0.213D+00 0.583D+00
 Gap=     0.122 Goal=   None    Shift=    0.000
 Gap=     0.122 Goal=   None    Shift=    0.000
 RMSDP=8.15D-03 MaxDP=4.58D-01 DE=-1.55D-01 OVMax= 3.77D-01

 Cycle   4  Pass 1  IDiag  1:
 RMSU=  5.20D-03    CP:  6.65D-01  2.55D+00  4.57D-01
 E= -415.810675653831     Delta-E=        0.153107937209 Rises=F Damp=F
 DIIS: error= 4.11D-02 at cycle   4 NSaved=   4.
 NSaved= 4 IEnMin= 3 EnMin= -415.963783591040     IErMin= 2 ErrMin= 1.06D-02
 ErrMax= 4.11D-02  0.00D+00 EMaxC= 1.00D-01 BMatC= 1.08D+00 BMatP= 1.90D-01
 IDIUse=2 WtCom= 0.00D+00 WtEn= 1.00D+00
 EnCoef did     3 forward-backward iterations
 Coeff-En:   0.668D-01 0.000D+00 0.575D+00 0.359D+00
 Coeff:      0.668D-01 0.000D+00 0.575D+00 0.359D+00
 Gap=     0.119 Goal=   None    Shift=    0.000
 Gap=     0.119 Goal=   None    Shift=    0.000
 RMSDP=4.53D-03 MaxDP=1.50D-01 DE= 1.53D-01 OVMax= 2.84D-01

 Cycle   5  Pass 1  IDiag  1:
 RMSU=  2.42D-03    CP:  6.61D-01  2.03D+00  6.96D-01  6.29D-01
 E= -416.107326807842     Delta-E=       -0.296651154011 Rises=F Damp=F
 DIIS: error= 4.89D-03 at cycle   5 NSaved=   5.
 NSaved= 5 IEnMin= 5 EnMin= -416.107326807842     IErMin= 5 ErrMin= 4.89D-03
 ErrMax= 4.89D-03  0.00D+00 EMaxC= 1.00D-01 BMatC= 4.30D-02 BMatP= 1.90D-01
 IDIUse=3 WtCom= 9.51D-01 WtEn= 4.89D-02
 Coeff-Com: -0.387D-01 0.157D+00 0.270D+00 0.879D-01 0.525D+00
 Coeff-En:   0.000D+00 0.000D+00 0.000D+00 0.000D+00 0.100D+01
 Coeff:     -0.368D-01 0.149D+00 0.256D+00 0.836D-01 0.548D+00
 Gap=     0.142 Goal=   None    Shift=    0.000
 Gap=     0.142 Goal=   None    Shift=    0.000
 RMSDP=2.13D-03 MaxDP=8.63D-02 DE=-2.97D-01 OVMax= 8.07D-02

 Cycle   6  Pass 1  IDiag  1:
 RMSU=  1.14D-03    CP:  6.56D-01  2.21D+00  7.63D-01  4.69D-01  5.48D-01
 E= -416.112503743737     Delta-E=       -0.005176935895 Rises=F Damp=F
 DIIS: error= 3.83D-03 at cycle   6 NSaved=   6.
 NSaved= 6 IEnMin= 6 EnMin= -416.112503743737     IErMin= 6 ErrMin= 3.83D-03
 ErrMax= 3.83D-03  0.00D+00 EMaxC= 1.00D-01 BMatC= 2.13D-02 BMatP= 4.30D-02
 IDIUse=3 WtCom= 9.62D-01 WtEn= 3.83D-02
 Coeff-Com: -0.943D-01 0.104D+00 0.670D-01-0.858D-02 0.423D+00 0.508D+00
 Coeff-En:   0.000D+00 0.000D+00 0.000D+00 0.000D+00 0.352D+00 0.648D+00
 Coeff:     -0.907D-01 0.100D+00 0.644D-01-0.825D-02 0.420D+00 0.514D+00
 Gap=     0.133 Goal=   None    Shift=    0.000
 Gap=     0.133 Goal=   None    Shift=    0.000
 RMSDP=7.00D-04 MaxDP=2.23D-02 DE=-5.18D-03 OVMax= 3.59D-02

 Cycle   7  Pass 1  IDiag  1:
 RMSU=  3.38D-04    CP:  6.56D-01  2.19D+00  7.53D-01  4.96D-01  7.09D-01
                    CP:  6.17D-01
 E= -416.117792030389     Delta-E=       -0.005288286652 Rises=F Damp=F
 DIIS: error= 1.87D-03 at cycle   7 NSaved=   7.
 NSaved= 7 IEnMin= 7 EnMin= -416.117792030389     IErMin= 7 ErrMin= 1.87D-03
 ErrMax= 1.87D-03  0.00D+00 EMaxC= 1.00D-01 BMatC= 2.67D-03 BMatP= 2.13D-02
 IDIUse=3 WtCom= 9.81D-01 WtEn= 1.87D-02
 Coeff-Com: -0.645D-01 0.752D-01 0.142D-01-0.548D-02 0.195D+00 0.259D+00
 Coeff-Com:  0.526D+00
 Coeff-En:   0.000D+00 0.000D+00 0.000D+00 0.000D+00 0.000D+00 0.000D+00
 Coeff-En:   0.100D+01
 Coeff:     -0.633D-01 0.738D-01 0.140D-01-0.538D-02 0.192D+00 0.254D+00
 Coeff:      0.535D+00
 Gap=     0.132 Goal=   None    Shift=    0.000
 Gap=     0.132 Goal=   None    Shift=    0.000
 RMSDP=2.21D-04 MaxDP=7.60D-03 DE=-5.29D-03 OVMax= 7.31D-03

 Cycle   8  Pass 1  IDiag  1:
 RMSU=  1.65D-04    CP:  6.56D-01  2.20D+00  7.43D-01  4.98D-01  7.36D-01
                    CP:  6.47D-01  7.64D-01
 E= -416.118273402289     Delta-E=       -0.000481371901 Rises=F Damp=F
 DIIS: error= 1.35D-03 at cycle   8 NSaved=   8.
 NSaved= 8 IEnMin= 8 EnMin= -416.118273402289     IErMin= 8 ErrMin= 1.35D-03
 ErrMax= 1.35D-03  0.00D+00 EMaxC= 1.00D-01 BMatC= 1.34D-03 BMatP= 2.67D-03
 IDIUse=3 WtCom= 9.87D-01 WtEn= 1.35D-02
 Coeff-Com: -0.221D-01 0.305D-01-0.210D-01 0.621D-02-0.269D-01-0.546D-01
 Coeff-Com:  0.217D+00 0.871D+00
 Coeff-En:   0.000D+00 0.000D+00 0.000D+00 0.000D+00 0.000D+00 0.000D+00
 Coeff-En:   0.000D+00 0.100D+01
 Coeff:     -0.218D-01 0.301D-01-0.207D-01 0.612D-02-0.265D-01-0.539D-01
 Coeff:      0.214D+00 0.873D+00
 Gap=     0.129 Goal=   None    Shift=    0.000
 Gap=     0.129 Goal=   None    Shift=    0.000
 RMSDP=1.58D-04 MaxDP=4.14D-03 DE=-4.81D-04 OVMax= 9.91D-03

 Cycle   9  Pass 1  IDiag  1:
 RMSU=  8.11D-05    CP:  6.57D-01  2.21D+00  7.37D-01  5.09D-01  7.57D-01
                    CP:  6.71D-01  9.17D-01  9.23D-01
 E= -416.118688950156     Delta-E=       -0.000415547867 Rises=F Damp=F
 DIIS: error= 5.02D-04 at cycle   9 NSaved=   9.
 NSaved= 9 IEnMin= 9 EnMin= -416.118688950156     IErMin= 9 ErrMin= 5.02D-04
 ErrMax= 5.02D-04  0.00D+00 EMaxC= 1.00D-01 BMatC= 2.73D-04 BMatP= 1.34D-03
 IDIUse=3 WtCom= 9.95D-01 WtEn= 5.02D-03
 Coeff-Com: -0.120D-02 0.361D-03-0.190D-01 0.935D-02-0.573D-01-0.101D+00
 Coeff-Com: -0.462D-01 0.518D+00 0.696D+00
 Coeff-En:   0.000D+00 0.000D+00 0.000D+00 0.000D+00 0.000D+00 0.000D+00
 Coeff-En:   0.000D+00 0.000D+00 0.100D+01
 Coeff:     -0.119D-02 0.359D-03-0.189D-01 0.931D-02-0.570D-01-0.100D+00
 Coeff:     -0.459D-01 0.516D+00 0.698D+00
 Gap=     0.127 Goal=   None    Shift=    0.000
 Gap=     0.127 Goal=   None    Shift=    0.000
 RMSDP=1.01D-04 MaxDP=2.43D-03 DE=-4.16D-04 OVMax= 4.55D-03

 Cycle  10  Pass 1  IDiag  1:
 RMSU=  5.22D-05    CP:  6.57D-01  2.22D+00  7.32D-01  5.16D-01  7.70D-01
                    CP:  6.79D-01  9.86D-01  1.16D+00  9.06D-01
 E= -416.118774323992     Delta-E=       -0.000085373836 Rises=F Damp=F
 DIIS: error= 1.02D-04 at cycle  10 NSaved=  10.
 NSaved=10 IEnMin=10 EnMin= -416.118774323992     IErMin=10 ErrMin= 1.02D-04
 ErrMax= 1.02D-04  0.00D+00 EMaxC= 1.00D-01 BMatC= 1.40D-05 BMatP= 2.73D-04
 IDIUse=3 WtCom= 9.99D-01 WtEn= 1.02D-03
 Coeff-Com:  0.472D-03-0.127D-02-0.618D-02 0.384D-02-0.194D-01-0.366D-01
 Coeff-Com: -0.517D-01 0.146D+00 0.414D+00 0.551D+00
 Coeff-En:   0.000D+00 0.000D+00 0.000D+00 0.000D+00 0.000D+00 0.000D+00
 Coeff-En:   0.000D+00 0.000D+00 0.000D+00 0.100D+01
 Coeff:      0.471D-03-0.127D-02-0.617D-02 0.384D-02-0.194D-01-0.365D-01
 Coeff:     -0.517D-01 0.145D+00 0.414D+00 0.551D+00
 Gap=     0.127 Goal=   None    Shift=    0.000
 Gap=     0.127 Goal=   None    Shift=    0.000
 RMSDP=3.53D-05 MaxDP=1.88D-03 DE=-8.54D-05 OVMax= 1.04D-03

 Cycle  11  Pass 1  IDiag  1:
 RMSU=  2.45D-05    CP:  6.57D-01  2.22D+00  7.30D-01  5.16D-01  7.70D-01
                    CP:  6.77D-01  9.71D-01  1.19D+00  1.00D+00  6.99D-01
 E= -416.118777239612     Delta-E=       -0.000002915621 Rises=F Damp=F
 DIIS: error= 4.09D-05 at cycle  11 NSaved=  11.
 NSaved=11 IEnMin=11 EnMin= -416.118777239612     IErMin=11 ErrMin= 4.09D-05
 ErrMax= 4.09D-05  0.00D+00 EMaxC= 1.00D-01 BMatC= 2.31D-06 BMatP= 1.40D-05
 IDIUse=1 WtCom= 1.00D+00 WtEn= 0.00D+00
 Coeff-Com:  0.318D-03-0.371D-03 0.444D-03 0.344D-04 0.198D-02 0.139D-02
 Coeff-Com: -0.128D-01-0.130D-01 0.811D-01 0.275D+00 0.666D+00
 Coeff:      0.318D-03-0.371D-03 0.444D-03 0.344D-04 0.198D-02 0.139D-02
 Coeff:     -0.128D-01-0.130D-01 0.811D-01 0.275D+00 0.666D+00
 Gap=     0.128 Goal=   None    Shift=    0.000
 Gap=     0.128 Goal=   None    Shift=    0.000
 RMSDP=1.23D-05 MaxDP=5.31D-04 DE=-2.92D-06 OVMax= 3.43D-04

 Cycle  12  Pass 1  IDiag  1:
 RMSU=  6.06D-06    CP:  6.57D-01  2.22D+00  7.31D-01  5.16D-01  7.69D-01
                    CP:  6.75D-01  9.67D-01  1.17D+00  9.98D-01  7.33D-01
                    CP:  6.84D-01
 E= -416.118777864269     Delta-E=       -0.000000624657 Rises=F Damp=F
 DIIS: error= 1.57D-05 at cycle  12 NSaved=  12.
 NSaved=12 IEnMin=12 EnMin= -416.118777864269     IErMin=12 ErrMin= 1.57D-05
 ErrMax= 1.57D-05  0.00D+00 EMaxC= 1.00D-01 BMatC= 2.63D-07 BMatP= 2.31D-06
 IDIUse=1 WtCom= 1.00D+00 WtEn= 0.00D+00
 Coeff-Com:  0.147D-03-0.112D-03 0.472D-03-0.159D-03 0.168D-02 0.143D-02
 Coeff-Com: -0.460D-02-0.853D-02 0.330D-01 0.136D+00 0.371D+00 0.470D+00
 Coeff:      0.147D-03-0.112D-03 0.472D-03-0.159D-03 0.168D-02 0.143D-02
 Coeff:     -0.460D-02-0.853D-02 0.330D-01 0.136D+00 0.371D+00 0.470D+00
 Gap=     0.128 Goal=   None    Shift=    0.000
 Gap=     0.128 Goal=   None    Shift=    0.000
 RMSDP=2.95D-06 MaxDP=1.03D-04 DE=-6.25D-07 OVMax= 8.83D-05

 Cycle  13  Pass 1  IDiag  1:
 RMSU=  1.37D-06    CP:  6.57D-01  2.22D+00  7.31D-01  5.16D-01  7.69D-01
                    CP:  6.76D-01  9.64D-01  1.17D+00  9.95D-01  7.36D-01
                    CP:  7.15D-01  8.71D-01
 E= -416.118777930286     Delta-E=       -0.000000066017 Rises=F Damp=F
 DIIS: error= 6.10D-06 at cycle  13 NSaved=  13.
 NSaved=13 IEnMin=13 EnMin= -416.118777930286     IErMin=13 ErrMin= 6.10D-06
 ErrMax= 6.10D-06  0.00D+00 EMaxC= 1.00D-01 BMatC= 3.65D-08 BMatP= 2.63D-07
 IDIUse=1 WtCom= 1.00D+00 WtEn= 0.00D+00
 Coeff-Com:  0.281D-04-0.182D-04 0.214D-03-0.999D-04 0.655D-03 0.267D-03
 Coeff-Com:  0.103D-03-0.650D-03 0.352D-02 0.238D-01 0.781D-01 0.211D+00
 Coeff-Com:  0.683D+00
 Coeff:      0.281D-04-0.182D-04 0.214D-03-0.999D-04 0.655D-03 0.267D-03
 Coeff:      0.103D-03-0.650D-03 0.352D-02 0.238D-01 0.781D-01 0.211D+00
 Coeff:      0.683D+00
 Gap=     0.128 Goal=   None    Shift=    0.000
 Gap=     0.128 Goal=   None    Shift=    0.000
 RMSDP=1.48D-06 MaxDP=6.32D-05 DE=-6.60D-08 OVMax= 4.36D-05

 Cycle  14  Pass 1  IDiag  1:
 RMSU=  6.05D-07    CP:  6.57D-01  2.22D+00  7.31D-01  5.16D-01  7.69D-01
                    CP:  6.75D-01  9.64D-01  1.17D+00  9.93D-01  7.44D-01
                    CP:  7.32D-01  8.80D-01  9.86D-01
 E= -416.118777941166     Delta-E=       -0.000000010881 Rises=F Damp=F
 DIIS: error= 1.42D-06 at cycle  14 NSaved=  14.
 NSaved=14 IEnMin=14 EnMin= -416.118777941166     IErMin=14 ErrMin= 1.42D-06
 ErrMax= 1.42D-06  0.00D+00 EMaxC= 1.00D-01 BMatC= 3.25D-09 BMatP= 3.65D-08
 IDIUse=1 WtCom= 1.00D+00 WtEn= 0.00D+00
 Coeff-Com: -0.130D-04 0.894D-05 0.567D-04-0.292D-04 0.148D-03-0.499D-04
 Coeff-Com:  0.621D-03 0.107D-02-0.230D-02-0.530D-02-0.914D-02 0.178D-01
 Coeff-Com:  0.271D+00 0.726D+00
 Coeff:     -0.130D-04 0.894D-05 0.567D-04-0.292D-04 0.148D-03-0.499D-04
 Coeff:      0.621D-03 0.107D-02-0.230D-02-0.530D-02-0.914D-02 0.178D-01
 Coeff:      0.271D+00 0.726D+00
 Gap=     0.128 Goal=   None    Shift=    0.000
 Gap=     0.128 Goal=   None    Shift=    0.000
 RMSDP=4.18D-07 MaxDP=1.26D-05 DE=-1.09D-08 OVMax= 1.18D-05

 Cycle  15  Pass 1  IDiag  1:
 RMSU=  1.79D-07    CP:  6.57D-01  2.22D+00  7.31D-01  5.16D-01  7.69D-01
                    CP:  6.75D-01  9.64D-01  1.17D+00  9.93D-01  7.43D-01
                    CP:  7.34D-01  8.95D-01  9.98D-01  9.35D-01
 E= -416.118777942099     Delta-E=       -0.000000000933 Rises=F Damp=F
 DIIS: error= 3.61D-07 at cycle  15 NSaved=  15.
 NSaved=15 IEnMin=15 EnMin= -416.118777942099     IErMin=15 ErrMin= 3.61D-07
 ErrMax= 3.61D-07  0.00D+00 EMaxC= 1.00D-01 BMatC= 2.48D-10 BMatP= 3.25D-09
 IDIUse=1 WtCom= 1.00D+00 WtEn= 0.00D+00
 Coeff-Com: -0.128D-05-0.386D-06-0.601D-05-0.146D-05-0.587D-04-0.137D-03
 Coeff-Com:  0.189D-03 0.781D-03-0.139D-02-0.569D-02-0.154D-01-0.241D-01
 Coeff-Com:  0.448D-01 0.406D+00 0.596D+00
 Coeff:     -0.128D-05-0.386D-06-0.601D-05-0.146D-05-0.587D-04-0.137D-03
 Coeff:      0.189D-03 0.781D-03-0.139D-02-0.569D-02-0.154D-01-0.241D-01
 Coeff:      0.448D-01 0.406D+00 0.596D+00
 Gap=     0.128 Goal=   None    Shift=    0.000
 Gap=     0.128 Goal=   None    Shift=    0.000
 RMSDP=1.46D-07 MaxDP=1.05D-05 DE=-9.33D-10 OVMax= 2.05D-06

 Cycle  16  Pass 1  IDiag  1:
 RMSU=  7.20D-08    CP:  6.57D-01  2.22D+00  7.31D-01  5.16D-01  7.69D-01
                    CP:  6.75D-01  9.64D-01  1.17D+00  9.93D-01  7.44D-01
                    CP:  7.35D-01  8.98D-01  1.03D+00  9.68D-01  7.42D-01
 E= -416.118777942150     Delta-E=       -0.000000000051 Rises=F Damp=F
 DIIS: error= 4.70D-08 at cycle  16 NSaved=  16.
 NSaved=16 IEnMin=16 EnMin= -416.118777942150     IErMin=16 ErrMin= 4.70D-08
 ErrMax= 4.70D-08  0.00D+00 EMaxC= 1.00D-01 BMatC= 2.27D-12 BMatP= 2.48D-10
 IDIUse=1 WtCom= 1.00D+00 WtEn= 0.00D+00
 Coeff-Com: -0.891D-07-0.181D-06-0.338D-05 0.919D-06-0.105D-04-0.160D-04
 Coeff-Com:  0.168D-04 0.825D-04-0.166D-03-0.665D-03-0.189D-02-0.530D-02
 Coeff-Com: -0.572D-02 0.391D-01 0.995D-01 0.875D+00
 Coeff:     -0.891D-07-0.181D-06-0.338D-05 0.919D-06-0.105D-04-0.160D-04
 Coeff:      0.168D-04 0.825D-04-0.166D-03-0.665D-03-0.189D-02-0.530D-02
 Coeff:     -0.572D-02 0.391D-01 0.995D-01 0.875D+00
 Gap=     0.128 Goal=   None    Shift=    0.000
 Gap=     0.128 Goal=   None    Shift=    0.000
 RMSDP=2.29D-08 MaxDP=9.61D-07 DE=-5.10D-11 OVMax= 3.23D-07

 Cycle  17  Pass 1  IDiag  1:
 RMSU=  1.13D-08    CP:  6.57D-01  2.22D+00  7.31D-01  5.16D-01  7.69D-01
                    CP:  6.75D-01  9.64D-01  1.17D+00  9.93D-01  7.44D-01
                    CP:  7.35D-01  8.99D-01  1.04D+00  9.77D-01  7.49D-01
                    CP:  9.36D-01
 E= -416.118777942150     Delta-E=        0.000000000000 Rises=F Damp=F
 DIIS: error= 1.35D-08 at cycle  17 NSaved=  17.
 NSaved=17 IEnMin=16 EnMin= -416.118777942150     IErMin=17 ErrMin= 1.35D-08
 ErrMax= 1.35D-08  0.00D+00 EMaxC= 1.00D-01 BMatC= 3.28D-13 BMatP= 2.27D-12
 IDIUse=1 WtCom= 1.00D+00 WtEn= 0.00D+00
 Coeff-Com:  0.945D-07-0.103D-06-0.105D-05 0.336D-06-0.874D-06-0.241D-06
 Coeff-Com:  0.743D-06-0.243D-05-0.674D-05 0.364D-04 0.645D-04-0.584D-03
 Coeff-Com: -0.365D-02-0.299D-02 0.740D-02 0.282D+00 0.717D+00
 Coeff:      0.945D-07-0.103D-06-0.105D-05 0.336D-06-0.874D-06-0.241D-06
 Coeff:      0.743D-06-0.243D-05-0.674D-05 0.364D-04 0.645D-04-0.584D-03
 Coeff:     -0.365D-02-0.299D-02 0.740D-02 0.282D+00 0.717D+00
 Gap=     0.128 Goal=   None    Shift=    0.000
 Gap=     0.128 Goal=   None    Shift=    0.000
 RMSDP=4.91D-09 MaxDP=2.27D-07 DE= 1.14D-13 OVMax= 1.34D-07

 SCF Done:  E(UB3LYP) =  -416.118777942     A.U. after   17 cycles
            NFock= 17  Conv=0.49D-08     -V/T= 2.0063
 <Sx>= 0.0000 <Sy>= 0.0000 <Sz>= 0.0000 <S**2>=-0.0000 S=-0.0000
 <L.S>= 0.000000000000E+00
 KE= 4.135141634753D+02 PE=-1.740549270094D+03 EE= 5.189661436893D+02
 Annihilation of the first spin contaminant:
 S**2 before annihilation    -0.0000,   after     0.0000
 Leave Link  502 at Sat Aug  8 23:19:49 2020, MaxMem=   524288000 cpu:            1114.7 elap:             159.9
 (Enter /home/ubuntu/g16/l601.exe)
 Copying SCF densities to generalized density rwf, IOpCl= 1 IROHF=0.

 **********************************************************************

            Population analysis using the SCF density.

 **********************************************************************

 Orbital symmetries:
 Alpha Orbitals:
       Occupied  (A) (A) (A) (A) (A) (A) (A) (A) (A) (A) (A) (A)
                 (A) (A) (A) (A) (A) (A) (A) (A) (A) (A) (A) (A)
                 (A) (A) (A) (A) (A) (A) (A)
       Virtual   (A) (A) (A) (A) (A) (A) (A) (A) (A) (A) (A) (A)
                 (A) (A) (A) (A) (A) (A) (A) (A) (A) (A) (A) (A)
                 (A) (A) (A) (A) (A) (A) (A) (A) (A) (A) (A) (A)
                 (A) (A) (A) (A) (A) (A) (A) (A) (A) (A) (A) (A)
                 (A) (A) (A) (A) (A) (A) (A) (A) (A) (A) (A) (A)
                 (A) (A) (A) (A) (A) (A) (A) (A) (A) (A) (A) (A)
                 (A) (A) (A) (A) (A) (A) (A) (A) (A) (A) (A) (A)
                 (A) (A) (A) (A) (A) (A) (A) (A) (A) (A) (A) (A)
                 (A) (A) (A) (A) (A) (A) (A) (A) (A) (A) (A) (A)
                 (A) (A) (A) (A) (A) (A) (A) (A) (A) (A) (A) (A)
                 (A) (A) (A) (A) (A) (A) (A) (A) (A) (A) (A) (A)
                 (A) (A) (A) (A) (A) (A) (A) (A) (A) (A) (A) (A)
                 (A) (A) (A) (A) (A) (A) (A) (A) (A) (A) (A) (A)
                 (A) (A) (A) (A) (A) (A) (A) (A) (A) (A) (A) (A)
                 (A) (A) (A) (A) (A) (A) (A) (A) (A) (A) (A) (A)
                 (A) (A) (A) (A) (A) (A) (A) (A) (A) (A) (A) (A)
                 (A) (A) (A) (A) (A) (A) (A) (A) (A) (A) (A) (A)
                 (A) (A) (A) (A) (A) (A) (A) (A) (A) (A) (A) (A)
                 (A) (A) (A) (A) (A)
 Beta  Orbitals:
       Occupied  (A) (A) (A) (A) (A) (A) (A) (A) (A) (A) (A) (A)
                 (A) (A) (A) (A) (A) (A) (A) (A) (A) (A) (A) (A)
                 (A) (A) (A) (A) (A) (A) (A)
       Virtual   (A) (A) (A) (A) (A) (A) (A) (A) (A) (A) (A) (A)
                 (A) (A) (A) (A) (A) (A) (A) (A) (A) (A) (A) (A)
                 (A) (A) (A) (A) (A) (A) (A) (A) (A) (A) (A) (A)
                 (A) (A) (A) (A) (A) (A) (A) (A) (A) (A) (A) (A)
                 (A) (A) (A) (A) (A) (A) (A) (A) (A) (A) (A) (A)
                 (A) (A) (A) (A) (A) (A) (A) (A) (A) (A) (A) (A)
                 (A) (A) (A) (A) (A) (A) (A) (A) (A) (A) (A) (A)
                 (A) (A) (A) (A) (A) (A) (A) (A) (A) (A) (A) (A)
                 (A) (A) (A) (A) (A) (A) (A) (A) (A) (A) (A) (A)
                 (A) (A) (A) (A) (A) (A) (A) (A) (A) (A) (A) (A)
                 (A) (A) (A) (A) (A) (A) (A) (A) (A) (A) (A) (A)
                 (A) (A) (A) (A) (A) (A) (A) (A) (A) (A) (A) (A)
                 (A) (A) (A) (A) (A) (A) (A) (A) (A) (A) (A) (A)
                 (A) (A) (A) (A) (A) (A) (A) (A) (A) (A) (A) (A)
                 (A) (A) (A) (A) (A) (A) (A) (A) (A) (A) (A) (A)
                 (A) (A) (A) (A) (A) (A) (A) (A) (A) (A) (A) (A)
                 (A) (A) (A) (A) (A) (A) (A) (A) (A) (A) (A) (A)
                 (A) (A) (A) (A) (A) (A) (A) (A) (A) (A) (A) (A)
                 (A) (A) (A) (A) (A)
 The electronic state is 1-A.
     Natural Orbital Coefficients:
                           1         2         3         4         5
     Eigenvalues --     2.00000   2.00000   2.00000   2.00000   2.00000
   1 1   C  1S         -0.00419  -0.01737   0.00657  -0.01460  -0.01199
   2        2S          0.02875  -0.04429   0.09019   0.01317   0.04294
   3        3S          0.02350  -0.01034   0.10060  -0.00568   0.08755
   4        4S         -0.35450   0.51232  -0.86267  -0.18020  -0.32864
   5        5PX        -0.01986   0.00233  -0.00008   0.01201  -0.02020
   6        5PY        -0.04497   0.05665  -0.12004  -0.03563  -0.04232
   7        5PZ         0.10043  -0.33226  -0.16404  -0.07258  -0.13792
   8        6PX        -0.01335   0.06306   0.07080   0.01850   0.01647
   9        6PY         0.05202  -0.04665   0.14539   0.02211   0.06434
  10        6PZ         0.04309  -0.18849  -0.10176  -0.01536  -0.06032
  11        7PX        -0.02202   0.05011  -0.08887  -0.02684  -0.03389
  12        7PY        -0.07023   0.10421  -0.15314  -0.02941  -0.05617
  13        7PZ         0.00533  -0.02117  -0.01116  -0.00434  -0.00634
  14        8D 0        0.00097  -0.00139   0.00202   0.00069   0.00063
  15        8D+1       -0.01086   0.00183   0.01215   0.00719  -0.01754
  16        8D-1        0.00622  -0.00946  -0.00142  -0.00490  -0.01261
  17        8D+2        0.00009   0.00180  -0.00091  -0.00107   0.00052
  18        8D-2       -0.00120  -0.00158   0.00064   0.00044  -0.00145
  19        9D 0        0.00272  -0.00286   0.00610  -0.00024   0.00317
  20        9D+1       -0.00445  -0.01303  -0.00085   0.01742  -0.01625
  21        9D-1       -0.00282   0.00520  -0.00113   0.01962   0.00191
  22        9D+2        0.00066  -0.02197   0.02971   0.01547   0.01130
  23        9D-2        0.00596   0.00539   0.04714   0.01134   0.01994
  24 2   C  1S          0.03841  -0.08313   0.08505   0.02329   0.02884
  25        2S         -0.01450   0.07241  -0.08036  -0.02850  -0.01210
  26        3S         -0.05420   0.22424  -0.22253  -0.08971  -0.04053
  27        4S          0.41678  -0.63738   0.89824   0.17369   0.33102
  28        5PX         0.00842  -0.01817   0.00168  -0.01116   0.01760
  29        5PY        -0.04351   0.06435  -0.12677  -0.02495  -0.04330
  30        5PZ         0.23092  -0.15939  -0.18370  -0.22482   0.08086
  31        6PX        -0.00638   0.01884   0.02252   0.01065  -0.00494
  32        6PY        -0.03767   0.07829  -0.14691  -0.04563  -0.02437
  33        6PZ         0.10890  -0.10106  -0.10801  -0.08198   0.04423
  34        7PX         0.04627  -0.04461   0.11177   0.02222   0.04483
  35        7PY         0.06847  -0.11641   0.15484   0.03129   0.04891
  36        7PZ         0.01226  -0.00890  -0.02125   0.02744   0.01293
  37        8D 0       -0.00063  -0.00153  -0.00125  -0.00021  -0.00050
  38        8D+1        0.00531  -0.02407  -0.01510   0.01797  -0.01008
  39        8D-1        0.02022   0.00188  -0.01377   0.02492   0.00601
  40        8D+2        0.00419  -0.00989   0.01394   0.00313   0.00710
  41        8D-2       -0.00695   0.01155  -0.01147  -0.00079  -0.00478
  42        9D 0       -0.00271   0.00474  -0.00668  -0.00183  -0.00191
  43        9D+1        0.01193  -0.01652  -0.01166  -0.00904  -0.00229
  44        9D-1        0.02162  -0.00447  -0.01222  -0.02368   0.01093
  45        9D+2       -0.00533  -0.00193   0.02391   0.01583  -0.00477
  46        9D-2       -0.00962  -0.00527  -0.02531  -0.00369  -0.00421
  47 3   C  1S         -0.05835   0.13248  -0.11035   0.05361  -0.12066
  48        2S         -0.04249   0.01890  -0.10550  -0.02109  -0.06546
  49        3S         -0.04020  -0.05694  -0.12323  -0.02462  -0.06032
  50        4S          0.36392  -0.47121   0.68560   0.10413   0.23874
  51        5PX         0.01114  -0.01125  -0.01557  -0.00756  -0.01046
  52        5PY        -0.00750   0.00595  -0.05259  -0.00591  -0.02056
  53        5PZ         0.00870  -0.14561   0.10161  -0.05988  -0.39157
  54        6PX         0.02624   0.00241   0.07671   0.00507   0.03136
  55        6PY         0.02526  -0.04350   0.19065   0.04950   0.08604
  56        6PZ        -0.01118  -0.07004   0.05487  -0.04042  -0.18882
  57        7PX        -0.02100   0.03961  -0.05763  -0.01054  -0.02129
  58        7PY        -0.01763   0.05747  -0.13400  -0.04396  -0.05426
  59        7PZ        -0.01927  -0.00171   0.00982  -0.00351  -0.00546
  60        8D 0        0.00049   0.00054   0.00307   0.00106   0.00225
  61        8D+1       -0.01289   0.00835   0.01075  -0.00207   0.00311
  62        8D-1        0.00587   0.02677   0.01576   0.00380  -0.00719
  63        8D+2       -0.00039   0.00227  -0.00203  -0.00190   0.00039
  64        8D-2        0.00240  -0.00204   0.00566   0.00124   0.00436
  65        9D 0       -0.00386   0.00380  -0.00505   0.00144  -0.00211
  66        9D+1       -0.00863   0.01282  -0.00188   0.00737   0.01962
  67        9D-1        0.00190   0.00737   0.00852   0.01228  -0.01333
  68        9D+2       -0.02396   0.03431  -0.04943  -0.01000  -0.02101
  69        9D-2        0.00854  -0.03066  -0.01472   0.00375  -0.01129
  70 4   C  1S         -0.00665   0.00077  -0.00728   0.00519   0.00928
  71        2S          0.02150  -0.02139   0.01887   0.00916   0.00044
  72        3S          0.00053   0.02418  -0.03266   0.00737  -0.02574
  73        4S         -0.48338   0.67729  -0.94444  -0.15237  -0.31441
  74        5PX        -0.08813   0.12955  -0.16374  -0.01183  -0.03520
  75        5PY         0.04578  -0.10416   0.14733   0.04465   0.04806
  76        5PZ         0.35254   0.05546  -0.15980   0.02873   0.11251
  77        6PX         0.07058  -0.06917   0.10669   0.01035   0.03231
  78        6PY         0.01161   0.04481  -0.08353  -0.04904  -0.00119
  79        6PZ         0.17776   0.03102  -0.09012   0.05388   0.06733
  80        7PX        -0.07377   0.08818  -0.14227  -0.02160  -0.05346
  81        7PY         0.01930  -0.06932   0.07406   0.02602   0.02988
  82        7PZ         0.00762  -0.00071  -0.00257  -0.00691   0.00187
  83        8D 0        0.00044  -0.00075   0.00121   0.00007   0.00050
  84        8D+1        0.01550   0.00722  -0.00129   0.00086  -0.00130
  85        8D-1       -0.00175   0.01611   0.01045   0.01198  -0.00483
  86        8D+2        0.00651  -0.01012   0.01601   0.00247   0.00453
  87        8D-2       -0.00319   0.00321  -0.00288   0.00135  -0.00170
  88        9D 0       -0.00088   0.00195  -0.00336  -0.00045  -0.00078
  89        9D+1       -0.00309   0.00462   0.00227   0.01949  -0.00435
  90        9D-1       -0.00088   0.00237   0.00124   0.00519  -0.00063
  91        9D+2       -0.02815   0.06049  -0.08091  -0.02206  -0.01647
  92        9D-2        0.02098  -0.01343  -0.00561  -0.01615   0.00090
  93 5   C  1S         -0.03703   0.00405  -0.02670  -0.01553   0.02394
  94        2S         -0.00064  -0.00265  -0.04819  -0.01933  -0.03962
  95        3S          0.00497  -0.02170  -0.03541  -0.01199  -0.05653
  96        4S         -0.30697   0.38439  -0.43386  -0.03747  -0.15813
  97        5PX         0.00418  -0.01660  -0.06305  -0.00786  -0.01019
  98        5PY         0.03105  -0.01449   0.05337   0.00025   0.02337
  99        5PZ         0.14028   0.21450   0.18813   0.00837  -0.25785
 100        6PX        -0.07345   0.12314  -0.16575  -0.03231  -0.05022
 101        6PY         0.01803  -0.03840   0.11694   0.02472   0.05418
 102        6PZ         0.06075   0.13428   0.11304  -0.00314  -0.12766
 103        7PX         0.05300  -0.08689   0.11580   0.02296   0.04703
 104        7PY         0.04311  -0.03549   0.05608   0.00055   0.01369
 105        7PZ         0.00531   0.01500   0.01400  -0.00559  -0.01402
 106        8D 0        0.00154  -0.00133   0.00395   0.00071   0.00207
 107        8D+1       -0.01616  -0.01359  -0.00037  -0.00389  -0.00169
 108        8D-1        0.00236   0.00939  -0.00497   0.00377   0.01957
 109        8D+2        0.00187  -0.00052   0.00642   0.00162   0.00259
 110        8D-2        0.00322  -0.00316   0.00652   0.00137   0.00355
 111        9D 0       -0.00005  -0.00024  -0.00195  -0.00144  -0.00061
 112        9D+1       -0.00226  -0.00228   0.00813  -0.00691  -0.01352
 113        9D-1        0.00115   0.00017  -0.00086   0.00142   0.00156
 114        9D+2        0.00678  -0.02464   0.03341   0.00948   0.01453
 115        9D-2        0.00052  -0.00848   0.02734   0.01102   0.00954
 116 6   C  1S          0.03643  -0.02221   0.06016   0.00978   0.02410
 117        2S         -0.03962   0.03870  -0.04207   0.00707  -0.02744
 118        3S         -0.09300   0.09618  -0.05703   0.02941  -0.03324
 119        4S          0.43148  -0.55151   0.77653   0.10747   0.28258
 120        5PX         0.01750   0.00333   0.03465  -0.01790  -0.00515
 121        5PY        -0.02668   0.01820  -0.07475  -0.01847  -0.03252
 122        5PZ         0.30091   0.25234   0.03782   0.06723  -0.03545
 123        6PX        -0.00360   0.05223  -0.07830  -0.03605  -0.02597
 124        6PY         0.06742  -0.06356   0.08402  -0.00453   0.03456
 125        6PZ         0.16276   0.14516   0.02628   0.02251  -0.01304
 126        7PX         0.00494  -0.03634   0.02849   0.01228   0.01814
 127        7PY        -0.08125   0.10681  -0.14900  -0.02299  -0.05149
 128        7PZ         0.00684   0.01159  -0.00110   0.00863   0.00827
 129        8D 0        0.00072  -0.00071   0.00185   0.00010   0.00138
 130        8D+1       -0.00586   0.00903   0.01549  -0.00083  -0.01706
 131        8D-1       -0.01668  -0.00519   0.00326  -0.00160   0.00094
 132        8D+2        0.00788  -0.01062   0.01612   0.00194   0.00438
 133        8D-2        0.00188  -0.00181   0.00322   0.00149   0.00251
 134        9D 0        0.00015  -0.00029   0.00307   0.00097   0.00057
 135        9D+1       -0.00194   0.00364   0.00575   0.00387  -0.00697
 136        9D-1       -0.00916  -0.00042   0.00316   0.00272  -0.00065
 137        9D+2       -0.02424   0.02988  -0.04993  -0.00532  -0.01566
 138        9D-2       -0.00569  -0.01082   0.01899   0.00860   0.00016
 139 7   N  1S         -0.00773   0.02043  -0.02386   0.00084  -0.02388
 140        2S         -0.00585  -0.00868  -0.03486  -0.00604  -0.01862
 141        3S         -0.00227  -0.03059  -0.05515  -0.01347  -0.03047
 142        4S         -0.06739   0.07336  -0.14509  -0.03607  -0.05928
 143        5PX         0.01548  -0.00292   0.06705   0.02605   0.04850
 144        5PY         0.02072   0.00216   0.03537  -0.00753   0.02035
 145        5PZ        -0.09920  -0.01558   0.05496  -0.06747   0.05354
 146        6PX        -0.00274   0.01403  -0.01535  -0.01067  -0.00294
 147        6PY         0.01474  -0.00081   0.04149   0.00379   0.02287
 148        6PZ        -0.06256  -0.01364   0.03805  -0.03636   0.01111
 149        7PX        -0.00658   0.01115  -0.02636  -0.01288  -0.01780
 150        7PY         0.00098  -0.00013   0.01846   0.00550   0.00920
 151        7PZ        -0.00091  -0.00348   0.00382  -0.00092  -0.00912
 152        8D 0        0.00021   0.00060   0.00068   0.00003   0.00047
 153        8D+1       -0.00049   0.00995  -0.00618   0.00116   0.03088
 154        8D-1        0.00021  -0.00141   0.00323  -0.00040  -0.01032
 155        8D+2        0.00048  -0.00040   0.00201  -0.00000   0.00088
 156        8D-2        0.00164   0.00031   0.00520   0.00044   0.00275
 157        9D 0        0.00401  -0.00561   0.00869   0.00311   0.00383
 158        9D+1       -0.00555   0.01858  -0.01098   0.00622   0.05040
 159        9D-1        0.00166  -0.00224   0.00629  -0.00307  -0.01683
 160        9D+2       -0.00192   0.00215   0.00111  -0.00137  -0.00031
 161        9D-2        0.00398  -0.00487   0.01786   0.00498   0.00764
 162 8   N  1S         -0.02558  -0.04495  -0.06575   0.04261   0.03683
 163        2S          0.00434  -0.00307   0.03416   0.01092   0.02122
 164        3S          0.02011  -0.01348   0.09356   0.02632   0.04213
 165        4S          0.02630  -0.02791   0.08228   0.02867   0.04174
 166        5PX         0.00856   0.00728   0.02144  -0.01205   0.00166
 167        5PY         0.02098  -0.00158   0.05791   0.00680   0.03425
 168        5PZ        -0.02116   0.07076  -0.04452  -0.01420   0.28826
 169        6PX        -0.00160   0.00669  -0.01763  -0.01379  -0.01023
 170        6PY         0.00992  -0.00002   0.02317   0.00304   0.01408
 171        6PZ         0.01039   0.03568  -0.03090  -0.00326   0.14115
 172        7PX        -0.00336   0.00267  -0.01070  -0.00392  -0.00489
 173        7PY         0.00198  -0.00274   0.00456   0.00183   0.00206
 174        7PZ         0.00699   0.00705  -0.00919   0.00303   0.02285
 175        8D 0        0.00006   0.00036   0.00004  -0.00056  -0.00041
 176        8D+1        0.00567  -0.00141  -0.00139   0.00390  -0.01174
 177        8D-1       -0.00181   0.00052   0.00049  -0.00123   0.00372
 178        8D+2       -0.00128  -0.00049  -0.00289   0.00068  -0.00108
 179        8D-2       -0.00157   0.00024  -0.00383  -0.00063  -0.00268
 180        9D 0       -0.00060   0.00034  -0.00284  -0.00076  -0.00113
 181        9D+1       -0.00255   0.00220  -0.00092   0.00225   0.00465
 182        9D-1        0.00085  -0.00018   0.00062  -0.00064  -0.00156
 183        9D+2        0.00019   0.00008   0.00458   0.00135   0.00170
 184        9D-2        0.00001  -0.00095   0.00140   0.00032   0.00033
 185 9   H  1S          0.09746  -0.14471   0.18707   0.02535   0.04318
 186        2S          0.19754  -0.28846   0.38896   0.05390   0.10192
 187        3S         -0.01600   0.02143  -0.03396  -0.00702  -0.01409
 188        4PX         0.00402  -0.00577   0.00724   0.00138   0.00140
 189        4PY        -0.00141   0.00145  -0.00173   0.00006  -0.00030
 190        4PZ         0.01203   0.00214  -0.00550   0.00117   0.00417
 191        5PX         0.04206  -0.05891   0.08083   0.00979   0.02244
 192        5PY        -0.01713   0.03123  -0.04618  -0.01117  -0.01190
 193        5PZ         0.00471   0.00296  -0.00290   0.00857   0.00252
 194 10  H  1S          0.01934  -0.01855  -0.03431  -0.01367  -0.01391
 195        2S          0.05897  -0.06155   0.00798  -0.01178   0.00419
 196        3S         -0.01453   0.01852  -0.02325  -0.00243  -0.00816
 197        4PX        -0.00085   0.00067   0.00135   0.00085   0.00133
 198        4PY        -0.00019   0.00054   0.00352   0.00091   0.00171
 199        4PZ         0.00453   0.00809   0.00696   0.00031  -0.00878
 200        5PX        -0.01085   0.01436  -0.00544   0.00032  -0.00285
 201        5PY        -0.01066   0.00902  -0.00632   0.00078  -0.00216
 202        5PZ        -0.00064   0.00750   0.00307   0.00217   0.00174
 203 11  H  1S          0.04307  -0.06152   0.13312   0.03652   0.05026
 204        2S          0.07193  -0.11194   0.23727   0.06746   0.09011
 205        3S         -0.01094   0.01591  -0.02629  -0.00507  -0.01148
 206        4PX        -0.00122   0.00067  -0.00184   0.00002  -0.00104
 207        4PY         0.00303  -0.00439   0.00913   0.00217   0.00366
 208        4PZ         0.00300  -0.01180  -0.00585  -0.00235  -0.00446
 209        5PX        -0.00008   0.00588  -0.00342  -0.00263   0.00006
 210        5PY         0.01561  -0.02301   0.04866   0.01399   0.01803
 211        5PZ        -0.00253  -0.00232  -0.00373   0.00726   0.00333
 212 12  H  1S         -0.05685   0.04942  -0.11159  -0.01122  -0.04730
 213        2S         -0.14212   0.15263  -0.26530  -0.02873  -0.09753
 214        3S          0.02096  -0.03018   0.03869   0.00689   0.01453
 215        4PX        -0.00028   0.00036  -0.00042  -0.00046  -0.00076
 216        4PY         0.00266  -0.00187   0.00418  -0.00007   0.00209
 217        4PZ         0.01037   0.00897   0.00126   0.00270  -0.00095
 218        5PX        -0.00820   0.01007  -0.01891  -0.00156  -0.00495
 219        5PY         0.03219  -0.03567   0.06133   0.00736   0.02212
 220        5PZ         0.00614   0.00587   0.00024   0.00253   0.00079
 221 13  O  1S          0.05284  -0.12530   0.07579   0.01746   0.12017
 222        2S         -0.03043   0.06385  -0.05259  -0.00465  -0.03493
 223        3S         -0.04708   0.10036  -0.09480  -0.01675  -0.06345
 224        4S         -0.07060   0.12006  -0.14134  -0.02542  -0.06802
 225        5PX        -0.01766   0.07413  -0.07337  -0.02865  -0.04285
 226        5PY         0.03899  -0.06644   0.12825   0.04162   0.06964
 227        5PZ        -0.05197   0.15083   0.18777  -0.55925   0.04283
 228        6PX        -0.01041   0.03265  -0.03084  -0.00956  -0.01892
 229        6PY         0.02211  -0.03873   0.07054   0.02281   0.04043
 230        6PZ        -0.03721   0.10584   0.13038  -0.37308   0.02603
 231        7PX        -0.01066   0.02031  -0.03278  -0.00945  -0.01545
 232        7PY        -0.00923   0.01313  -0.01027   0.00133  -0.00259
 233        7PZ        -0.02041   0.02987   0.03906  -0.06744  -0.00318
 234        8D 0       -0.00080   0.00094  -0.00277  -0.00092  -0.00132
 235        8D+1        0.00306  -0.00325  -0.00328  -0.00186   0.00099
 236        8D-1        0.00219   0.00152   0.00161  -0.01560   0.00251
 237        8D+2       -0.00005  -0.00018  -0.00027  -0.00030  -0.00030
 238        8D-2       -0.00082   0.00389  -0.00367  -0.00144  -0.00199
 239        9D 0        0.00096  -0.00211   0.00465   0.00168   0.00126
 240        9D+1        0.00688  -0.00364  -0.00502  -0.00626   0.00260
 241        9D-1        0.00447   0.00082   0.00132  -0.02397   0.00342
 242        9D+2       -0.00118   0.00332  -0.00533  -0.00273  -0.00334
 243        9D-2       -0.00042  -0.00084   0.00025   0.00074   0.00102
 244 14  H  1S          0.01899  -0.05948   0.08626   0.03378   0.04420
 245        2S          0.02155  -0.03415   0.03827   0.00487   0.02771
 246        3S          0.00492  -0.00654   0.01483   0.00373   0.00514
 247        4PX         0.00085  -0.00382   0.00751   0.00362   0.00361
 248        4PY         0.00139  -0.00103   0.00213  -0.00008   0.00103
 249        4PZ        -0.00236   0.00740   0.00836  -0.02245   0.00192
 250        5PX         0.00381  -0.00426   0.00549   0.00028   0.00554
 251        5PY        -0.00160   0.00223  -0.00271  -0.00044   0.00097
 252        5PZ        -0.00135   0.00728   0.00674  -0.01299   0.00083
                           6         7         8         9        10
     Eigenvalues --     2.00000   2.00000   2.00000   2.00000   2.00000
   1 1   C  1S         -0.08665   0.03165  -0.08118  -0.03380   0.00667
   2        2S         -0.02534   0.06967  -0.05777   0.02826   0.01549
   3        3S          0.05566   0.06870  -0.09977   0.25808   0.12568
   4        4S         -0.21089  -0.01405   0.01218  -0.19004   0.21639
   5        5PX        -0.05260   0.04359   0.05652   0.03119  -0.11762
   6        5PY        -0.05695   0.07051  -0.02031  -0.02504   0.02584
   7        5PZ         0.03575  -0.05030  -0.00911  -0.01888  -0.00512
   8        6PX         0.06877  -0.01531  -0.06816  -0.04015   0.12457
   9        6PY         0.05881  -0.02547  -0.04784   0.12366   0.04369
  10        6PZ         0.01890  -0.02915  -0.01113  -0.01125   0.00788
  11        7PX        -0.01222  -0.08126   0.02586   0.11911  -0.08475
  12        7PY        -0.03103  -0.02939   0.00870  -0.02840   0.01375
  13        7PZ         0.00235  -0.00304  -0.00089  -0.00128  -0.00023
  14        8D 0        0.00278  -0.00142   0.00146  -0.00105  -0.00086
  15        8D+1       -0.00167  -0.00122   0.00190   0.00258  -0.00178
  16        8D-1        0.00090  -0.00178   0.00126  -0.00008  -0.00194
  17        8D+2        0.00146  -0.00047  -0.00404  -0.00272   0.01006
  18        8D-2       -0.00616   0.01269   0.00053  -0.00429  -0.00099
  19        9D 0       -0.00510   0.00602  -0.00566   0.01078   0.00962
  20        9D+1       -0.00034  -0.00300   0.00090   0.00272  -0.00587
  21        9D-1       -0.00193  -0.00041  -0.00231   0.00050   0.00621
  22        9D+2        0.00722   0.01853   0.02657  -0.04011  -0.07359
  23        9D-2        0.04391  -0.02127  -0.02158  -0.02194   0.03257
  24 2   C  1S          0.11371   0.06162   0.05233   0.12317  -0.05673
  25        2S          0.00789  -0.09673  -0.05165   0.04458   0.11248
  26        3S          0.07990  -0.29007  -0.14824   0.24315   0.35347
  27        4S          0.16892   0.20613  -0.00702   0.22570  -0.15910
  28        5PX        -0.00545   0.04412  -0.04582   0.00107   0.02219
  29        5PY        -0.05337  -0.05411   0.05018   0.10520  -0.10650
  30        5PZ         0.03978  -0.00581  -0.00822  -0.04171   0.00122
  31        6PX         0.02804   0.01684  -0.02600  -0.13502   0.05489
  32        6PY         0.03783  -0.15115   0.00843   0.09647   0.00081
  33        6PZ         0.02057  -0.00609  -0.00706  -0.01904  -0.00412
  34        7PX         0.05547  -0.09060   0.01035   0.04065  -0.05583
  35        7PY         0.01870   0.09597  -0.01629  -0.04315   0.06250
  36        7PZ         0.00009  -0.00136  -0.00440  -0.00080   0.00361
  37        8D 0       -0.00142   0.00377   0.00212   0.00394  -0.00565
  38        8D+1        0.00114  -0.00444  -0.00197   0.00026  -0.00034
  39        8D-1       -0.00091   0.00013  -0.00141   0.00036  -0.00101
  40        8D+2        0.00177   0.01748  -0.00422  -0.00957   0.00095
  41        8D-2       -0.00003  -0.00782   0.00258  -0.01280   0.00232
  42        9D 0        0.00685  -0.00674  -0.00038  -0.00444   0.00368
  43        9D+1        0.00254  -0.00176  -0.00012  -0.00162  -0.00212
  44        9D-1        0.00287   0.00107  -0.00032  -0.00394   0.00132
  45        9D+2       -0.00439   0.02297   0.01684  -0.07757  -0.03925
  46        9D-2       -0.02330   0.03747   0.02598   0.04296  -0.04860
  47 3   C  1S          0.80917   0.28557  -0.02388  -0.07377  -0.19216
  48        2S         -0.11834   0.24083  -0.01805   0.03188  -0.01163
  49        3S         -0.28519   0.30763   0.09251   0.12219  -0.08819
  50        4S          0.20534  -0.05890  -0.02069   0.36481  -0.24872
  51        5PX        -0.00104   0.01706  -0.01258   0.03329   0.03942
  52        5PY        -0.00306  -0.00608   0.01460   0.00858   0.01403
  53        5PZ         0.00230  -0.04059   0.04501   0.02202  -0.05896
  54        6PX         0.03383   0.02706  -0.06177   0.09862   0.09710
  55        6PY         0.06072   0.02376  -0.02273   0.04398   0.06636
  56        6PZ         0.00095  -0.02045   0.01921   0.00855  -0.01568
  57        7PX        -0.00017  -0.03618  -0.00094  -0.07062   0.04413
  58        7PY        -0.00767  -0.11942   0.02747   0.14065  -0.09204
  59        7PZ        -0.00029  -0.00066   0.00043   0.00112   0.00002
  60        8D 0        0.00700  -0.01185   0.00241  -0.00162  -0.00218
  61        8D+1       -0.00059   0.00208   0.00247   0.00239  -0.00873
  62        8D-1       -0.00338   0.00281   0.00267   0.00153   0.00131
  63        8D+2       -0.00003   0.00682  -0.00545   0.00038   0.01806
  64        8D-2        0.00475  -0.00815   0.00121   0.01602  -0.01005
  65        9D 0        0.01213  -0.00566   0.00577  -0.01157  -0.00985
  66        9D+1       -0.00167   0.00125  -0.00545  -0.00255   0.01726
  67        9D-1       -0.00189   0.00023   0.00300   0.00308  -0.00689
  68        9D+2        0.00356   0.02535  -0.00633  -0.04391  -0.00562
  69        9D-2       -0.02380  -0.01167   0.03272  -0.06772  -0.06580
  70 4   C  1S          0.19603   0.03210   0.01745   0.07136   0.01350
  71        2S         -0.03174   0.00507   0.00851  -0.01472  -0.02813
  72        3S         -0.03935  -0.07432   0.05158   0.03770  -0.15860
  73        4S         -0.23411  -0.13984   0.04224  -0.17854   0.03059
  74        5PX        -0.05333  -0.07819   0.03513  -0.00920  -0.09779
  75        5PY         0.00609   0.13302  -0.00816  -0.14155  -0.02434
  76        5PZ         0.00630   0.01903  -0.00144  -0.01994  -0.01503
  77        6PX         0.04077  -0.04636  -0.02832   0.02005   0.01293
  78        6PY         0.06913  -0.16952  -0.04460   0.18015   0.10300
  79        6PZ         0.00102   0.00953  -0.00361  -0.00788  -0.00813
  80        7PX        -0.05454   0.04356  -0.00051  -0.06860   0.03775
  81        7PY        -0.01606   0.13784  -0.00814  -0.06503   0.01389
  82        7PZ         0.00086   0.00059   0.00089  -0.00054  -0.00293
  83        8D 0        0.00163  -0.00176   0.00072   0.00317  -0.00190
  84        8D+1       -0.00050   0.00108   0.00118  -0.00016  -0.00129
  85        8D-1       -0.00270   0.00144   0.00146   0.00219  -0.00087
  86        8D+2        0.00117   0.00986  -0.00379  -0.00705   0.00687
  87        8D-2       -0.00267   0.00152   0.00282  -0.00794  -0.00265
  88        9D 0       -0.00153  -0.00237   0.00174   0.01290  -0.00433
  89        9D+1       -0.00200  -0.00049  -0.00058   0.00169   0.00141
  90        9D-1       -0.00060   0.00015   0.00012   0.00064  -0.00061
  91        9D+2        0.00239  -0.07727  -0.00980   0.06570   0.01173
  92        9D-2        0.02016  -0.02754  -0.01109   0.08091   0.03814
  93 5   C  1S          0.23627  -0.03104   0.15257   0.38066   0.27863
  94        2S         -0.07266   0.06803  -0.02306   0.00782   0.04614
  95        3S         -0.08314   0.11900  -0.03584  -0.22890  -0.00856
  96        4S         -0.17649   0.17184  -0.01826  -0.46363   0.32451
  97        5PX         0.00251  -0.07599   0.05022   0.16454  -0.23443
  98        5PY         0.04752  -0.10077  -0.01790   0.01096  -0.00903
  99        5PZ        -0.03188   0.01351   0.05508   0.02555  -0.03505
 100        6PX         0.02600  -0.03480   0.00216   0.00814   0.07855
 101        6PY         0.00580   0.02840   0.00029   0.06730   0.05316
 102        6PZ        -0.01887   0.00978   0.02810   0.01271  -0.00886
 103        7PX         0.02588   0.04393  -0.00373   0.04514  -0.02261
 104        7PY         0.03693  -0.07536   0.00726   0.05355  -0.03241
 105        7PZ        -0.00182   0.00128   0.00342   0.00117  -0.00113
 106        8D 0        0.00437  -0.00434   0.00029   0.00145  -0.00098
 107        8D+1        0.00121  -0.00203  -0.00123  -0.00012   0.00109
 108        8D-1       -0.00030   0.00236  -0.00194  -0.00100   0.00235
 109        8D+2        0.00390  -0.00538  -0.00133  -0.00841   0.00370
 110        8D-2        0.00290  -0.00626   0.00056   0.00593  -0.00963
 111        9D 0       -0.00200   0.00300   0.00014   0.00731   0.00792
 112        9D+1        0.00024  -0.00035   0.00350   0.00183  -0.00824
 113        9D-1        0.00008   0.00032   0.00035   0.00037  -0.00242
 114        9D+2       -0.01400   0.03027   0.00763   0.03587  -0.02543
 115        9D-2       -0.00928   0.02841   0.00061  -0.06067   0.03641
 116 6   C  1S         -0.02350  -0.13223  -0.01165  -0.06497  -0.08809
 117        2S         -0.07059   0.07962  -0.00667  -0.17217   0.05241
 118        3S         -0.05820   0.14766   0.01025  -0.35643   0.09076
 119        4S          0.26254  -0.10411  -0.02775   0.36174  -0.17391
 120        5PX         0.00667   0.01481  -0.06032  -0.02349   0.19877
 121        5PY         0.01745  -0.00368   0.02164   0.04689  -0.02115
 122        5PZ        -0.02519   0.03361   0.03191   0.00725  -0.02788
 123        6PX         0.05081  -0.07682  -0.02460   0.05927   0.15044
 124        6PY         0.03443  -0.06712  -0.03437   0.10297   0.00151
 125        6PZ        -0.01324   0.02071   0.01941   0.00404  -0.02038
 126        7PX        -0.01009   0.08355  -0.00780  -0.02063   0.00067
 127        7PY        -0.05581   0.01922  -0.00184  -0.04217   0.03637
 128        7PZ        -0.00123   0.00182  -0.00048   0.00011   0.00102
 129        8D 0        0.00318  -0.00283   0.00033   0.00402  -0.00077
 130        8D+1       -0.00185   0.00002   0.00284   0.00201  -0.00117
 131        8D-1        0.00028  -0.00082  -0.00092   0.00032   0.00122
 132        8D+2        0.00127   0.00693  -0.00504  -0.00379   0.00655
 133        8D-2        0.00135  -0.00654   0.00215   0.00287  -0.01147
 134        9D 0        0.00158  -0.00043  -0.00103  -0.01322  -0.00019
 135        9D+1       -0.00092   0.00004   0.00139   0.00140  -0.00244
 136        9D-1       -0.00037  -0.00032  -0.00034   0.00063   0.00059
 137        9D+2       -0.01415   0.00116   0.00392  -0.00717  -0.00740
 138        9D-2       -0.02336   0.05263  -0.00091  -0.06336   0.00886
 139 7   N  1S          0.24400   0.10631  -0.15924   0.11418  -0.00068
 140        2S         -0.05342   0.06790  -0.01312  -0.06298   0.05489
 141        3S         -0.14169   0.18516   0.04104  -0.05687   0.09025
 142        4S         -0.13833   0.15199   0.00899  -0.00466   0.09589
 143        5PX         0.08953  -0.18918   0.04428  -0.03082  -0.02849
 144        5PY         0.00414   0.04824  -0.04478   0.18685   0.13911
 145        5PZ         0.01333   0.02091   0.04173   0.03137  -0.19491
 146        6PX        -0.03890   0.08193   0.01288   0.08243   0.05610
 147        6PY         0.03189  -0.03346  -0.02388   0.08237   0.06583
 148        6PZ         0.00670   0.00929   0.02402   0.01841  -0.10607
 149        7PX        -0.02901   0.07433  -0.00607   0.07663   0.00060
 150        7PY         0.01061  -0.02084  -0.00205  -0.02114   0.01719
 151        7PZ         0.00024  -0.00040   0.00251   0.00172  -0.00776
 152        8D 0        0.00235  -0.00032   0.00024   0.00094   0.00088
 153        8D+1        0.00064   0.00420  -0.00067   0.00003  -0.00730
 154        8D-1       -0.00041  -0.00113   0.00045   0.00013   0.00221
 155        8D+2       -0.00186   0.00047  -0.00194   0.00312   0.00401
 156        8D-2        0.00365  -0.00153  -0.00114   0.00777   0.00474
 157        9D 0        0.01177  -0.01510   0.00190  -0.00771  -0.00562
 158        9D+1       -0.00026   0.00530  -0.00557  -0.00253   0.00674
 159        9D-1       -0.00028  -0.00120   0.00229   0.00102  -0.00237
 160        9D+2       -0.01554   0.02061  -0.00356   0.00651   0.00843
 161        9D-2        0.01402  -0.01062  -0.00021  -0.00547  -0.00018
 162 8   N  1S          0.04569   0.17885   0.83042  -0.07428   0.30799
 163        2S          0.05169  -0.11753   0.02987  -0.04734   0.03027
 164        3S          0.15407  -0.27931  -0.04343  -0.06597  -0.05262
 165        4S          0.10872  -0.17978  -0.00346  -0.07344  -0.05464
 166        5PX         0.01054   0.04241  -0.05434   0.12627   0.07034
 167        5PY         0.02409  -0.02412  -0.01159   0.10102   0.09075
 168        5PZ         0.01255   0.04449   0.01250   0.01293  -0.15111
 169        6PX        -0.04128   0.09285  -0.00037   0.06701   0.06999
 170        6PY         0.02313  -0.03780  -0.01123   0.04062   0.02201
 171        6PZ         0.00613   0.02162   0.00527   0.00472  -0.06998
 172        7PX        -0.01824   0.02545   0.00175   0.00558   0.01258
 173        7PY         0.00559  -0.00679  -0.00025  -0.00350  -0.00636
 174        7PZ         0.00032   0.00252  -0.00198  -0.00132   0.00058
 175        8D 0        0.00013   0.00242  -0.00218   0.00411   0.00092
 176        8D+1       -0.00107  -0.00246  -0.00252  -0.00200   0.01467
 177        8D-1        0.00033   0.00079   0.00081   0.00064  -0.00468
 178        8D+2       -0.00167  -0.00250   0.00434  -0.01369  -0.00674
 179        8D-2       -0.00179   0.00288  -0.00012  -0.00651  -0.00767
 180        9D 0       -0.00393   0.00836   0.00383   0.00320   0.00293
 181        9D+1       -0.00037   0.00012  -0.00151  -0.00067   0.00458
 182        9D-1        0.00005   0.00003   0.00054   0.00026  -0.00149
 183        9D+2        0.00551  -0.01015  -0.00510  -0.00418  -0.00451
 184        9D-2       -0.00355   0.00903   0.00340  -0.00029   0.00385
 185 9   H  1S          0.02362   0.10440  -0.03387  -0.04870   0.07355
 186        2S          0.07847   0.17673  -0.05751  -0.07138   0.11623
 187        3S         -0.01161   0.00383  -0.00208  -0.01261   0.00923
 188        4PX        -0.00070   0.00367  -0.00067  -0.00319   0.00129
 189        4PY        -0.00034   0.00036   0.00038  -0.00130  -0.00142
 190        4PZ         0.00019   0.00069  -0.00008  -0.00068  -0.00047
 191        5PX         0.02018   0.03132  -0.01515  -0.01032   0.02980
 192        5PY        -0.00460  -0.03101   0.00184   0.03316  -0.00163
 193        5PZ        -0.00063   0.00025  -0.00064   0.00013   0.00088
 194 10  H  1S         -0.02053  -0.06541   0.00649   0.09914  -0.13980
 195        2S          0.02540  -0.12910   0.01629   0.17683  -0.25205
 196        3S         -0.01090   0.00048  -0.00104  -0.01754   0.00279
 197        4PX         0.00259   0.00021   0.00131  -0.00039   0.00138
 198        4PY         0.00341   0.00026  -0.00038  -0.00430   0.00577
 199        4PZ        -0.00118   0.00056   0.00193   0.00092  -0.00116
 200        5PX        -0.00307   0.01754  -0.00545  -0.03638   0.05139
 201        5PY        -0.00910   0.02504  -0.00081  -0.01587   0.03220
 202        5PZ        -0.00097   0.00078  -0.00031  -0.00002   0.00286
 203 11  H  1S          0.02086  -0.01707   0.00166   0.04596  -0.03994
 204        2S          0.08265  -0.04725   0.03082   0.04637  -0.13679
 205        3S         -0.00473  -0.00795   0.00384  -0.00891   0.00167
 206        4PX        -0.00156   0.00129   0.00189  -0.00160  -0.00390
 207        4PY        -0.00022   0.00211  -0.00155   0.00260  -0.00054
 208        4PZ         0.00126  -0.00178  -0.00041  -0.00067  -0.00008
 209        5PX         0.00607  -0.00648  -0.00977  -0.00391   0.02311
 210        5PY         0.02118  -0.01628   0.00741   0.01040  -0.03023
 211        5PZ        -0.00021  -0.00064  -0.00180  -0.00032   0.00348
 212 12  H  1S         -0.03038   0.03586   0.02954  -0.04418  -0.02570
 213        2S         -0.06707   0.04646   0.06001  -0.05541  -0.01898
 214        3S          0.01879  -0.00322   0.00366   0.01566  -0.01459
 215        4PX        -0.00055   0.00193  -0.00110  -0.00163   0.00432
 216        4PY         0.00274  -0.00408  -0.00105   0.00624   0.00028
 217        4PZ        -0.00091   0.00119   0.00105   0.00025  -0.00086
 218        5PX        -0.00174  -0.00435   0.00681   0.00993  -0.01314
 219        5PY         0.01488  -0.00801  -0.01415   0.00442   0.00106
 220        5PZ        -0.00061   0.00081   0.00038   0.00008  -0.00009
 221 13  O  1S         -0.21515   0.13048   0.34057   0.32705  -0.28500
 222        2S          0.05094  -0.14865   0.05207  -0.20832  -0.02856
 223        3S          0.06753  -0.20350   0.03717  -0.23224  -0.00372
 224        4S         -0.00464  -0.11162   0.01808  -0.09605  -0.00737
 225        5PX        -0.00059  -0.09645  -0.03699   0.09814   0.14930
 226        5PY         0.01937   0.09920  -0.02992  -0.06975   0.03145
 227        5PZ         0.01814   0.04050   0.03802  -0.02937   0.00674
 228        6PX         0.00929  -0.05044  -0.00673  -0.00855   0.04278
 229        6PY         0.00869   0.06196  -0.02209  -0.03042   0.01981
 230        6PZ         0.01134   0.02745   0.02596  -0.01907   0.00495
 231        7PX        -0.00686  -0.01113  -0.00266   0.00700   0.01374
 232        7PY         0.00050  -0.00542   0.00023  -0.02878  -0.00950
 233        7PZ         0.00024   0.00578   0.00663  -0.00140  -0.00032
 234        8D 0       -0.00164   0.00023   0.00041   0.00551  -0.00081
 235        8D+1        0.00058  -0.00027  -0.00027  -0.00053   0.00003
 236        8D-1        0.00094   0.00090   0.00072  -0.00125   0.00018
 237        8D+2        0.00085  -0.00095   0.00018  -0.00340  -0.00090
 238        8D-2        0.00043  -0.00559  -0.00201   0.00381   0.00777
 239        9D 0        0.00268  -0.00025   0.00157  -0.01188  -0.00314
 240        9D+1        0.00104  -0.00005  -0.00024  -0.00122   0.00027
 241        9D-1        0.00161   0.00117   0.00103  -0.00203   0.00028
 242        9D+2       -0.00122  -0.00340  -0.00221   0.00898   0.00698
 243        9D-2        0.00128  -0.00085   0.00222  -0.01207  -0.00850
 244 14  H  1S          0.03153   0.05218   0.02934  -0.18553  -0.10374
 245        2S          0.01378   0.03156  -0.01832   0.01594   0.02041
 246        3S          0.00548  -0.00251   0.00015  -0.00480   0.00069
 247        4PX         0.00506   0.00113   0.00432  -0.02566  -0.01090
 248        4PY        -0.00125   0.00344  -0.00349   0.00877   0.00773
 249        4PZ         0.00059   0.00182   0.00163  -0.00108   0.00024
 250        5PX         0.00607  -0.00120  -0.00411   0.00439   0.00585
 251        5PY        -0.00099   0.00085  -0.00178   0.00596   0.00153
 252        5PZ         0.00001   0.00143   0.00125  -0.00045   0.00009
                          11        12        13        14        15
     Eigenvalues --     2.00000   2.00000   2.00000   2.00000   2.00000
   1 1   C  1S          0.00905   0.20293  -0.44867   0.02718  -0.08847
   2        2S         -0.01723   0.00139  -0.06149  -0.00516   0.02834
   3        3S         -0.13127  -0.06895  -0.01125   0.04193   0.15101
   4        4S          0.05792   0.00262   0.14611   0.11299   0.02420
   5        5PX        -0.00004   0.00138  -0.03468  -0.08120  -0.13944
   6        5PY        -0.07652   0.00298  -0.02523   0.00256   0.01145
   7        5PZ        -0.01797  -0.00829   0.00449   0.05749  -0.00118
   8        6PX        -0.05955   0.03301   0.09578   0.08543  -0.04927
   9        6PY         0.01709  -0.04278   0.03102   0.01509   0.03914
  10        6PZ        -0.01117   0.00108   0.00289   0.01275   0.00488
  11        7PX        -0.08922   0.00001  -0.04736  -0.00778   0.02522
  12        7PY        -0.03824   0.00933   0.00426   0.01984  -0.00171
  13        7PZ        -0.00100  -0.00056   0.00032   0.00346  -0.00005
  14        8D 0        0.00126  -0.00013   0.00187  -0.00029  -0.00073
  15        8D+1        0.00017  -0.00090  -0.00007   0.00427  -0.00024
  16        8D-1       -0.00064  -0.00106   0.00002   0.00522  -0.00088
  17        8D+2       -0.00606  -0.00022   0.00335   0.00660   0.00469
  18        8D-2       -0.00902  -0.00179  -0.00255  -0.00191  -0.00745
  19        9D 0       -0.00145   0.00323  -0.00688   0.00737   0.00922
  20        9D+1        0.00052  -0.00453   0.00048   0.01583  -0.00327
  21        9D-1       -0.00100   0.00366   0.00005  -0.01154   0.00308
[...]
 ! A18   A(5,6,12)             119.4141         -DE/DX =    0.0                 !
 ! A19   A(2,13,14)            112.2684         -DE/DX =    0.0                 !
 ! A20   L(3,7,8,10,-1)        179.6272         -DE/DX =    0.0                 !
 ! A21   L(3,7,8,10,-2)        179.9938         -DE/DX =    0.0                 !
 ! D1    D(3,1,2,4)             -0.0113         -DE/DX =    0.0                 !
 ! D2    D(3,1,2,13)           179.976          -DE/DX =    0.0                 !
 ! D3    D(11,1,2,4)           179.9835         -DE/DX =    0.0                 !
 ! D4    D(11,1,2,13)           -0.0291         -DE/DX =    0.0                 !
 ! D5    D(2,1,3,5)              0.0106         -DE/DX =    0.0                 !
 ! D6    D(2,1,3,7)            180.0055         -DE/DX =    0.0                 !
 ! D7    D(11,1,3,5)          -179.9841         -DE/DX =    0.0                 !
 ! D8    D(11,1,3,7)             0.0107         -DE/DX =    0.0                 !
 ! D9    D(1,2,4,6)              0.0095         -DE/DX =    0.0                 !
 ! D10   D(1,2,4,9)           -179.9883         -DE/DX =    0.0                 !
 ! D11   D(13,2,4,6)          -179.9768         -DE/DX =    0.0                 !
 ! D12   D(13,2,4,9)             0.0254         -DE/DX =    0.0                 !
 ! D13   D(1,2,13,14)         -180.025          -DE/DX =    0.0                 !
 ! D14   D(4,2,13,14)           -0.0383         -DE/DX =    0.0                 !
 ! D15   D(1,3,5,6)             -0.0071         -DE/DX =    0.0                 !
 ! D16   D(1,3,5,10)          -179.9953         -DE/DX =    0.0                 !
 ! D17   D(7,3,5,6)           -180.0019         -DE/DX =    0.0                 !
 ! D18   D(7,3,5,10)             0.0099         -DE/DX =    0.0                 !
 ! D19   D(2,4,6,5)             -0.006          -DE/DX =    0.0                 !
 ! D20   D(2,4,6,12)           179.9974         -DE/DX =    0.0                 !
 ! D21   D(9,4,6,5)            179.9918         -DE/DX =    0.0                 !
 ! D22   D(9,4,6,12)            -0.0048         -DE/DX =    0.0                 !
 ! D23   D(3,5,6,4)              0.0044         -DE/DX =    0.0                 !
 ! D24   D(3,5,6,12)          -179.9989         -DE/DX =    0.0                 !
 ! D25   D(10,5,6,4)           179.9925         -DE/DX =    0.0                 !
 ! D26   D(10,5,6,12)           -0.0108         -DE/DX =    0.0                 !
 --------------------------------------------------------------------------------
 GradGradGradGradGradGradGradGradGradGradGradGradGradGradGradGradGradGrad

 Leave Link  103 at Sat Aug  8 23:34:37 2020, MaxMem=   524288000 cpu:               0.2 elap:               0.0
 (Enter /home/ubuntu/g16/l9999.exe)

 ----------------------------------------------------------------------

 Electric dipole moment (input orientation):
 (Debye = 10**-18 statcoulomb cm , SI units = C m)
                  (au)            (Debye)         (10**-30 SI)
   Tot        0.672578D+00      0.170952D+01      0.570235D+01
   x          0.368740D+00      0.937244D+00      0.312631D+01
   y          0.562487D+00      0.142970D+01      0.476896D+01
   z          0.302502D-03      0.768883D-03      0.256472D-02

 Dipole polarizability, Alpha (input orientation).
 (esu units = cm**3 , SI units = C**2 m**2 J**-1)
 Alpha(0;0):
               (au)            (10**-24 esu)      (10**-40 SI)
   iso        0.895972D+02      0.132769D+02      0.147726D+02
   aniso      0.769433D+02      0.114018D+02      0.126862D+02
   xx         0.132014D+03      0.195624D+02      0.217661D+02
   yx        -0.844773D+01     -0.125183D+01     -0.139284D+01
   yy         0.918983D+02      0.136179D+02      0.151520D+02
   zx        -0.135449D-02     -0.200715D-03     -0.223326D-03
   zy        -0.112078D-02     -0.166083D-03     -0.184792D-03
   zz         0.448795D+02      0.665046D+01      0.739964D+01

 ----------------------------------------------------------------------

 Dipole orientation:
     6          0.68412455         -0.44972793         -1.60648885
     6         -1.45327177          0.95124463         -2.27961542
     6          1.15091319         -0.75392933          0.99030342
     6         -3.01105568          1.97348054         -0.37160805
     6         -0.35879112          0.23688144          2.94629104
     6         -2.46547135          1.61749274          2.19044416
     7          3.26376158         -2.13853111          1.67676136
     7          4.95893822         -3.24964084          2.24173970
     1         -4.67770186          3.06545269         -0.90392072
     1          0.10863269         -0.06797862          4.92449657
     1          1.91127035         -1.25557140         -3.04638344
     1         -3.70561302          2.43132880          3.61699720
     8         -1.88554894          1.23403320         -4.76693234
     1         -3.38986464          2.21919843         -5.10138379

 Electric dipole moment (dipole orientation):
 (Debye = 10**-18 statcoulomb cm , SI units = C m)
                  (au)            (Debye)         (10**-30 SI)
   Tot        0.672578D+00      0.170952D+01      0.570235D+01
   x          0.000000D+00      0.000000D+00      0.000000D+00
   y          0.000000D+00      0.000000D+00      0.000000D+00
   z          0.672578D+00      0.170952D+01      0.570235D+01

 Dipole polarizability, Alpha (dipole orientation).
 (esu units = cm**3 , SI units = C**2 m**2 J**-1)
 Alpha(0;0):
               (au)            (10**-24 esu)      (10**-40 SI)
   iso        0.895972D+02      0.132769D+02      0.147726D+02
   aniso      0.769433D+02      0.114018D+02      0.126862D+02
   xx         0.102815D+03      0.152355D+02      0.169518D+02
   yx        -0.379722D+02     -0.562690D+01     -0.626077D+01
   yy         0.697676D+02      0.103385D+02      0.115031D+02
   zx         0.125783D+02      0.186391D+01      0.207388D+01
   zy        -0.821611D+01     -0.121750D+01     -0.135465D+01
   zz         0.962093D+02      0.142567D+02      0.158628D+02

 ----------------------------------------------------------------------
 1\1\GINC-LC06-SRV\Freq\UB3LYP\Aug-CC-pVDZ\C6H5N2O1(1+)\UBUNTU\08-Aug-2
 020\0\\#P Geom=AllCheck Guess=TCheck SCRF=Check GenChk UB3LYP/Aug-CC-p
 VDZ Freq\\3-HOPhN2+_UB3LYP-aug-cc-pVDZ\\1,1\C,-0.10375,-0.94849,0.0001
 7\C,-1.43005,-0.50495,0.0001\C,0.89621,0.0391,-0.00001\C,-1.70109,0.88
 002,0.0001\C,0.66451,1.42864,-0.00004\C,-0.66948,1.82488,-0.00003\N,2.
 21332,-0.38998,-0.00006\N,3.27424,-0.72798,0.\H,-2.73733,1.22251,0.000
 24\H,1.4854,2.14221,-0.00026\H,0.12822,-2.01165,0.00044\H,-0.91207,2.8
 8656,-0.00007\O,-2.38028,-1.45587,-0.00023\H,-3.27312,-1.08219,0.00013
 \\Version=ES64L-G16RevA.03\State=1-A\HF=-416.1187779\S2=0.\S2-1=0.\S2A
 =0.\RMSD=6.052e-09\RMSF=3.867e-05\ZeroPoint=0.1027264\Thermal=0.110011
 2\Dipole=0.36874,0.562487,0.0003025\DipoleDeriv=0.0916301,-0.5709392,-
 0.0000417,0.2592727,-0.0840723,-0.0000248,-0.0000378,-0.0000494,-0.053
 3332,0.9291893,1.0385865,0.0001687,1.1277946,0.4086455,0.0001108,0.000
 4217,0.0002466,0.1393106,-0.8165239,0.4688229,0.0000061,0.4359983,0.25
 26081,-0.0000175,0.0000785,0.000016,0.0631303,0.1672787,0.0139932,-0.0
 000325,-0.3161894,-0.0065342,-0.0000547,-0.0001626,-0.0000545,-0.03480
 02,0.1486791,0.0716494,-0.0000368,-0.4465253,-0.0869387,0.0000206,-0.0
 000717,-0.0000729,-0.0329914,-0.238259,-0.1859832,0.0000344,-0.07078,0
 .1585846,-0.000011,0.0000718,0.0000201,-0.0587519,1.7811111,-0.5674672
 ,-0.0000637,-0.5610426,0.3548287,0.0000304,-0.0000489,0.0000191,0.2567
 596,-0.6911222,0.2819064,0.0000583,0.2472968,-0.0135716,-0.0000159,-0.
 0000016,0.0000054,0.0896632,0.03194,-0.0165967,0.0000055,-0.022291,0.1
 009748,0.0000096,-0.0000306,-0.0000134,0.1387208,0.0627897,0.008646,0.
 0000096,0.0166058,0.119251,0.000002,0.0000492,0.0000368,0.1608921,0.07
 86956,0.0140131,0.0000003,0.0022683,0.1301117,0.0000012,-0.0000493,0.0
 000064,0.1677591,0.0840047,0.0034329,0.0000022,-0.0049676,0.0729002,0.
 0000021,0.0000272,-0.0000057,0.1384112,-1.0883997,-0.6766359,-0.000130
 6,-0.7724074,-0.6274264,0.0000156,-0.0003037,-0.0001686,-0.3115125,0.4
 589866,0.1165717,0.0000203,0.1049668,0.2206388,-0.0000684,0.0000577,0.
 000014,0.3367423\Polar=132.0136131,-8.4477343,91.8983051,-0.0013545,-0
 .0011208,44.8795371\Quadrupole=12.3359164,-1.6439127,-10.6920037,-2.32
 84077,-0.0021974,-0.0015706\PG=C01 [X(C6H5N2O1)]\NImag=0\\0.67451784,-
 0.01469582,0.75243774,0.00002058,-0.00011823,0.11740625,-0.29528278,0.
 10197359,-0.00001719,0.72278204,0.04767439,-0.14919132,0.00002120,0.01
 190253,0.67767952,-0.00001411,0.00000949,-0.06781732,0.00003389,0.0000
 3250,0.15811952,-0.17716397,-0.12578600,0.00001956,-0.05448824,0.00533
 832,0.00000400,0.53749680,-0.09925103,-0.23527289,0.00003057,-0.033819
 29,0.04231261,0.00000069,0.05482712,0.66776895,0.00002551,0.00002978,-
 0.04935793,-0.00000072,0.00000150,0.00153606,-0.00003559,-0.00005377,0
 .11780691,0.00912859,0.03535000,-0.00000457,-0.14243109,0.08051381,0.0
 0000207,-0.00563353,-0.01458041,-0.00000056,0.73804435,0.05974527,-0.0
 0239987,-0.00000441,0.01390799,-0.28495271,-0.00000670,-0.00796032,-0.
 04186891,-0.00000015,-0.00294753,0.65688152,-0.00001030,-0.00000066,0.
 00638066,0.00001527,-0.00000779,-0.07049644,0.00000098,0.00000387,-0.0
 0450174,-0.00005593,0.00000601,0.13761633,0.03007919,-0.01314491,0.000
 00211,-0.01963800,0.03071967,0.00000054,-0.08421625,-0.01482028,0.0000
 0412,-0.05127083,-0.04410838,0.00000423,0.72706892,-0.04069225,-0.0421
 3317,0.00000516,0.03417147,-0.03187357,0.00000276,0.01583991,-0.308393
 61,0.00001411,-0.00672637,0.04973392,-0.00000294,0.06075256,0.67214263
 ,-0.00000092,0.00000654,0.01230991,0.00000019,-0.00000045,-0.00387383,
 0.00000530,0.00001429,-0.05521937,0.00000799,-0.00000130,0.00710389,-0
 .00006877,-0.00006404,0.12302194,-0.04400486,-0.01614976,0.00000305,0.
 05040878,-0.05540801,0.00000531,-0.01674245,0.07100463,-0.00000060,-0.
 24097203,-0.07642302,0.00001598,-0.32713332,0.03653318,0.00000845,0.66
 763446,-0.00203852,-0.00230887,-0.00000176,-0.02102352,-0.03850929,0.0
 0000094,0.02862174,-0.00798085,0.00000023,-0.13794609,-0.22631252,0.00
 002090,0.09515062,-0.14156946,0.00000442,-0.02709993,0.73946394,-0.000
 00021,0.00000091,-0.00275991,0.00000168,0.00000041,0.00209484,0.000002
 04,-0.00000323,0.00710268,0.00002208,0.00002108,-0.06113658,0.00000371
 ,0.00000566,-0.06332122,-0.00003147,-0.00003520,0.13593915,-0.08541754
 ,0.00146214,0.00000501,0.00650527,-0.02646483,-0.00000190,-0.14060917,
 0.00846723,0.00001124,-0.00353942,-0.00212864,0.00000086,-0.04965661,0
 .05175989,-0.00000077,0.02226785,0.01133195,-0.00000326,1.49080471,-0.
 00489718,0.02006045,-0.00000407,-0.00911984,0.00754712,0.00000248,0.01
 354760,-0.09906871,0.00000123,-0.00160595,-0.00646179,0.00000048,0.053
 90353,-0.01540066,-0.00000003,-0.00159074,-0.01324282,0.00000153,-0.43
 195913,0.26617903,0.00000043,-0.00000543,-0.00629703,0.00000241,-0.000
 00169,0.00808053,0.00000721,0.00000904,-0.04524713,0.00000002,0.000002
 91,-0.00169611,0.00000012,-0.00000495,-0.00702352,-0.00000251,0.000002
 03,0.00839841,0.00005188,-0.00001920,0.09319068,0.02029770,0.00654433,
 -0.00000249,-0.00498454,0.01135932,0.00000159,-0.07043848,0.03474926,-
 0.00000424,0.00332765,0.00021121,-0.00000039,0.01122385,-0.02260380,0.
 00000034,-0.01056422,-0.00334318,0.00000200,-1.24192687,0.38240934,-0.
 00005942,1.29379538,-0.00507341,-0.00637352,0.00000241,0.00255607,-0.0
 0328215,-0.00000097,0.03062236,0.01255987,0.00000062,-0.00041245,0.001
 37445,-0.00000006,-0.00709621,0.00371129,-0.00000046,0.00260327,0.0031
 2650,-0.00000057,0.38335829,-0.15872479,0.00001790,-0.40657384,0.14739
 268,0.00000158,0.00000155,0.00424596,-0.00000060,0.00000099,-0.0017409
 9,-0.00000025,-0.00000207,0.01302935,0.00000029,-0.00000071,0.00060095
 ,0.00000060,0.00000056,0.00456523,0.00000017,-0.00000058,-0.00204913,-
 0.00006607,0.00002020,-0.04252952,0.00006432,-0.00001983,0.02284571,0.
 00089565,0.00033511,0.00000133,-0.00268107,-0.00284389,-0.00000021,0.0
 0107794,-0.00044405,-0.00000034,-0.31203908,0.08583089,0.00003458,-0.0
 0135663,-0.00338489,0.00000190,-0.01582544,0.00848749,0.00000108,-0.00
 065789,0.00028846,-0.00000017,0.00030559,-0.00013099,0.00000007,0.3276
 3837,0.00103588,-0.00575705,0.00000027,0.02906368,-0.00444124,-0.00000
 278,-0.00108435,-0.00105109,-0.00000009,0.08628711,-0.08782862,-0.0000
 1021,-0.00391062,-0.00242157,0.00000065,-0.02125264,0.01018580,0.00000
 098,0.00043912,-0.00020136,0.00000014,-0.00027566,0.00005091,-0.000000
 04,-0.08992745,0.08848874,0.00000208,-0.00000018,0.00531884,-0.0000026
 1,0.00000787,0.00750449,-0.00000217,-0.00000018,0.00015312,0.00003736,
 -0.00001574,-0.04076910,0.00000110,0.00000014,0.00695636,0.00000068,-0
 .00000036,0.00565181,0.00000172,-0.00000077,-0.00144482,-0.00000097,0.
 00000035,0.00039119,-0.00003708,0.00001032,0.02441038,0.00024420,0.002
 47136,-0.00000021,-0.00088729,0.00067901,-0.00000008,0.00796746,0.0094
 2648,-0.00000131,-0.00383985,0.00286695,0.00000087,-0.22479145,-0.1480
 3352,0.00004662,-0.01366386,-0.01987032,0.00000541,0.00201473,-0.00025
 223,-0.00000063,-0.00007662,0.00008808,0.00000004,-0.00068113,-0.00101
 294,-0.00000010,0.23186591,0.00356873,-0.00342412,0.00000079,-0.000203
 19,-0.00010136,-0.00000019,-0.02044886,-0.01566661,0.00000518,0.002831
 99,-0.00038020,0.00000074,-0.14584985,-0.18412870,0.00003972,0.0092309
 0,0.01151883,-0.00000181,-0.00358152,0.00139886,-0.00000061,0.00137255
 ,-0.00063852,0.00000021,0.00051179,0.00048905,-0.00000004,0.15335944,0
 .19024234,0.00000168,0.00000048,0.00382345,-0.00000117,-0.00000013,-0.
 00103309,-0.00000117,-0.00000145,0.00194828,-0.00000078,0.00000049,0.0
 0661915,0.00005309,0.00004493,-0.03175728,-0.00000149,-0.00000114,0.00
 456790,0.00000057,-0.00000092,-0.00428651,-0.00000051,0.00000039,0.000
 88834,-0.00000015,0.,-0.00027761,-0.00004994,-0.00004349,0.02240935,-0
 .07162313,0.06399520,-0.00001587,0.00120456,0.02922895,-0.00000453,0.0
 0588857,-0.02369563,0.00000341,-0.00586422,0.00071645,-0.00000014,-0.0
 0383822,-0.00239755,0.00000033,-0.00060179,-0.00021478,0.00000021,0.00
 379113,-0.00127861,0.00000032,-0.00109189,0.00009145,-0.00000009,0.000
 01340,0.00135935,0.00000030,0.00045636,-0.00094221,-0.00000011,0.06911
 797,0.06316547,-0.33711553,0.00007361,-0.00085411,-0.00245453,0.000002
 16,0.00506523,-0.01177595,0.00000125,0.00079497,-0.00002243,0.00000164
 ,-0.00330781,0.00109190,0.00000178,0.00111050,0.00066385,-0.00000043,0
 .00203483,-0.00012642,-0.00000130,-0.00119258,0.00023380,0.00000024,-0
 .00007719,-0.00008298,-0.00000021,0.00029802,-0.00036987,0.00000039,-0
 .06600635,0.35017804,-0.00001935,0.00008039,-0.03251675,0.00000520,-0.
 00000339,0.00776832,-0.00000203,0.00000067,0.00147666,0.00000026,0.000
 00121,0.00550239,0.00000055,-0.00000045,0.00426841,-0.00000080,-0.0000
 0055,-0.00097616,0.00000039,-0.00000063,-0.00432033,-0.00000028,0.0000
 0035,0.00086993,0.00000006,0.00000017,-0.00107802,0.00000024,0.,0.0016
 9159,0.00001567,-0.00007774,0.02184802,-0.00066733,-0.00058443,0.00000
 006,-0.00338484,-0.00281974,0.00000034,-0.00418868,0.00078169,0.000000
 37,0.00789710,-0.02372427,0.00000154,-0.00351050,0.02895022,-0.0000000
 8,-0.07063209,0.06340686,-0.00000155,-0.00089177,0.00249047,-0.0000002
 5,-0.00022100,-0.00043183,0.00000006,0.00083654,-0.00001461,0.,0.00095
 907,-0.00009113,-0.00000059,0.00006121,0.00002574,0.,0.07338094,-0.000
 39685,0.00029121,-0.00000010,-0.00303914,0.00008000,0.00000056,0.00042
 486,0.00171402,0.00000051,0.00580544,-0.01419033,0.00000047,-0.0004989
 7,-0.00300999,-0.00000019,0.06344605,-0.33386777,0.00001222,0.00054587
 ,0.00023226,-0.00000005,-0.00035884,-0.00012521,0.,0.00030451,0.000956
 30,-0.00000027,-0.00006776,0.00062902,-0.00000015,0.00001177,-0.000037
 72,-0.00000002,-0.06653600,0.34812874,0.00000152,-0.00000012,-0.001405
 50,-0.00000008,0.00000163,0.00757792,0.00000010,0.00000003,0.00583928,
 -0.00000292,0.00000073,0.00443948,-0.00000014,0.00000003,0.00428241,0.
 00000225,0.00001044,-0.03940689,0.00000022,-0.00000014,0.00188263,0.00
 000004,-0.00000001,-0.00065100,-0.00000076,-0.00000002,-0.00396583,-0.
 00000093,-0.00000052,-0.00408763,-0.00000003,-0.00000008,-0.00044094,0
 .00000051,-0.00001288,0.02645131,-0.06106352,-0.03744659,-0.00001337,-
 0.22400578,-0.14022706,-0.00003570,0.00102997,0.00678505,-0.00000010,0
 .00198709,-0.00972103,-0.00000712,-0.00392939,-0.00442473,-0.00000091,
 0.00114634,0.00429051,-0.00000028,-0.00106493,-0.00238234,0.00000080,-
 0.00033869,0.00062672,-0.00000025,0.00227938,0.00031565,-0.00000150,0.
 00042630,0.00035891,0.00000046,0.00217505,-0.00109692,-0.00000058,0.00
 013123,0.00020306,0.00000028,0.70483869,-0.00341231,0.01497818,-0.0000
 0361,-0.08911020,-0.22302368,-0.00005458,0.00052200,-0.00401458,0.0000
 0043,-0.04394085,-0.04489071,-0.00001261,-0.00733915,0.00205811,-0.000
 00113,0.01311778,-0.00106562,-0.00000160,0.00618669,-0.00216093,0.0000
 0139,-0.00284877,0.00074066,-0.00000064,-0.00001683,0.00291199,-0.0000
 0039,-0.00009052,0.00046971,0.00000069,-0.00068807,-0.00022092,-0.0000
 0012,-0.00148299,-0.00080967,0.00000103,-0.01942323,0.37916126,-0.0000
 0895,-0.00000080,0.00786838,-0.00001154,-0.00005428,-0.04322975,0.0000
 0499,0.00000208,0.00365501,-0.00000451,-0.00000363,0.01105926,-0.00000
 175,-0.00000267,-0.00109560,0.00000040,0.00000152,0.00637240,0.0000005
 1,0.00000073,0.00079014,0.00000035,-0.00000053,-0.00026679,-0.00000059
 ,0.00000072,-0.00304520,0.00000008,0.00000011,-0.00052438,0.00000035,-
 0.00000085,-0.00344228,-0.00000038,-0.00000002,-0.00060043,-0.00012948
 ,0.00015607,0.02740752,0.00005996,-0.00432424,0.00000200,-0.03311702,0
 .01034752,0.00000879,0.00002004,0.00056922,-0.00000118,0.00520528,0.00
 373444,-0.00000046,0.00096923,0.00025587,0.00000033,-0.00131736,0.0002
 4717,-0.00000143,-0.00161948,0.00044662,-0.00000021,0.00069215,-0.0002
 2749,0.00000012,0.00019440,-0.00102254,0.00000119,0.00000616,-0.000117
 54,0.00000012,0.00031100,0.00004021,0.00000069,0.00023012,0.00015601,-
 0.00000006,-0.42361174,0.14852644,0.00015052,0.45197726,-0.00473239,-0
 .00379125,-0.00000185,-0.03640605,0.01021059,0.00001363,0.00047041,0.0
 0073774,-0.00000084,-0.00342368,0.00131820,0.00000015,-0.00045019,0.00
 019287,0.00000019,0.00087779,-0.00010172,0.00000004,-0.00145191,-0.000
 03025,-0.00000017,0.00055066,-0.00004596,0.00000011,0.00106705,-0.0012
 9887,-0.00000054,0.00013794,-0.00003843,-0.00000007,-0.00017995,0.0000
 3878,0.00000011,0.00003001,0.00000915,-0.00000011,0.20214201,-0.124133
 81,-0.00009844,-0.15863168,0.11693296,0.00000046,-0.00000374,0.0028009
 9,-0.00002475,0.00000163,-0.00449028,-0.00000297,-0.00000056,0.0017788
 1,-0.00000080,0.00000021,-0.00072214,0.00000050,0.00000170,-0.00021733
 ,0.00000059,-0.00000089,-0.00047730,-0.00000041,-0.00000089,0.00050258
 ,-0.00000034,0.00000043,-0.00019924,0.00000028,-0.00000009,0.00019440,
 -0.00000007,-0.00000009,0.00001843,0.00000019,-0.00000046,-0.00065085,
 -0.00000003,-0.00000007,0.00008517,0.00018776,-0.00008493,-0.00494829,
 -0.00016042,0.00008776,0.00632506\\0.00005526,0.00010935,-0.00000207,0
 .00000368,-0.00011484,0.00002105,0.00003012,-0.00008674,-0.00001132,0.
 00006144,0.00003504,-0.00000480,-0.00002362,0.00008323,0.00002286,-0.0
 0003813,-0.00002126,-0.00001422,-0.00006580,0.00001896,-0.00001308,0.0
 0001724,-0.00002753,0.00000611,-0.00001063,0.00000779,0.00000694,-0.00
 000324,0.00000017,-0.00000408,-0.00001269,-0.00001708,0.00001050,0.000
 01511,-0.00000433,0.00000003,-0.00004905,0.00000611,-0.00002102,0.0000
 2031,0.00001114,0.00000310\\\@


  ON THE CHOICE OF THE CORRECT LANGUAGE -
 I SPEAK SPANISH TO GOD, ITALIAN TO WOMEN,
 FRENCH TO MEN, AND GERMAN TO MY HORSE.
          -- CHARLES V
 Job cpu time:       0 days  1 hours 39 minutes 55.7 seconds.
 Elapsed time:       0 days  0 hours 14 minutes 20.3 seconds.
 File lengths (MBytes):  RWF=    175 Int=      0 D2E=      0 Chk=      8 Scr=      1
 Normal termination of Gaussian 16 at Sat Aug  8 23:34:37 2020.
