 Entering Gaussian System, Link 0=/home/ubuntu/g16/g16
 Input=3-MeOPhN2+_UB3LYP-aug-cc-pVDZ-Opt.gjf
 Output=3-MeOPhN2+_UB3LYP-aug-cc-pVDZ-Opt.log
 Initial command:
 /home/ubuntu/g16/l1.exe "/home/ubuntu/g09-linda/scr/Gau-14387.inp" -scrdir="/home/ubuntu/g09-linda/scr/"
 Entering Link 1 = /home/ubuntu/g16/l1.exe PID=     14389.
  
 Copyright (c) 1988,1990,1992,1993,1995,1998,2003,2009,2016,
            Gaussian, Inc.  All Rights Reserved.
  
 This is part of the Gaussian(R) 16 program.  It is based on
 the Gaussian(R) 09 system (copyright 2009, Gaussian, Inc.),
 the Gaussian(R) 03 system (copyright 2003, Gaussian, Inc.),
 the Gaussian(R) 98 system (copyright 1998, Gaussian, Inc.),
 the Gaussian(R) 94 system (copyright 1995, Gaussian, Inc.),
 the Gaussian 92(TM) system (copyright 1992, Gaussian, Inc.),
 the Gaussian 90(TM) system (copyright 1990, Gaussian, Inc.),
 the Gaussian 88(TM) system (copyright 1988, Gaussian, Inc.),
 the Gaussian 86(TM) system (copyright 1986, Carnegie Mellon
 University), and the Gaussian 82(TM) system (copyright 1983,
 Carnegie Mellon University). Gaussian is a federally registered
 trademark of Gaussian, Inc.
  
 This software contains proprietary and confidential information,
 including trade secrets, belonging to Gaussian, Inc.
  
 This software is provided under written license and may be
 used, copied, transmitted, or stored only in accord with that
 written license.
  
 The following legend is applicable only to US Government
 contracts under FAR:
  
                    RESTRICTED RIGHTS LEGEND
  
 Use, reproduction and disclosure by the US Government is
 subject to restrictions as set forth in subparagraphs (a)
 and (c) of the Commercial Computer Software - Restricted
 Rights clause in FAR 52.227-19.
  
 Gaussian, Inc.
 340 Quinnipiac St., Bldg. 40, Wallingford CT 06492
  
  
 ---------------------------------------------------------------
 Warning -- This program may not be used in any manner that
 competes with the business of Gaussian, Inc. or will provide
 assistance to any competitor of Gaussian, Inc.  The licensee
 of this program is prohibited from giving any competitor of
 Gaussian, Inc. access to this program.  By using this program,
 the user acknowledges that Gaussian, Inc. is engaged in the
 business of creating and licensing software in the field of
 computational chemistry and represents and warrants to the
 licensee that it is not a competitor of Gaussian, Inc. and that
 it will not use this program in any manner prohibited above.
 ---------------------------------------------------------------
  

 Cite this work as:
 Gaussian 16, Revision A.03,
 M. J. Frisch, G. W. Trucks, H. B. Schlegel, G. E. Scuseria, 
 M. A. Robb, J. R. Cheeseman, G. Scalmani, V. Barone, 
 G. A. Petersson, H. Nakatsuji, X. Li, M. Caricato, A. V. Marenich, 
 J. Bloino, B. G. Janesko, R. Gomperts, B. Mennucci, H. P. Hratchian, 
 J. V. Ortiz, A. F. Izmaylov, J. L. Sonnenberg, D. Williams-Young, 
 F. Ding, F. Lipparini, F. Egidi, J. Goings, B. Peng, A. Petrone, 
 T. Henderson, D. Ranasinghe, V. G. Zakrzewski, J. Gao, N. Rega, 
 G. Zheng, W. Liang, M. Hada, M. Ehara, K. Toyota, R. Fukuda, 
 J. Hasegawa, M. Ishida, T. Nakajima, Y. Honda, O. Kitao, H. Nakai, 
 T. Vreven, K. Throssell, J. A. Montgomery, Jr., J. E. Peralta, 
 F. Ogliaro, M. J. Bearpark, J. J. Heyd, E. N. Brothers, K. N. Kudin, 
 V. N. Staroverov, T. A. Keith, R. Kobayashi, J. Normand, 
 K. Raghavachari, A. P. Rendell, J. C. Burant, S. S. Iyengar, 
 J. Tomasi, M. Cossi, J. M. Millam, M. Klene, C. Adamo, R. Cammi, 
 J. W. Ochterski, R. L. Martin, K. Morokuma, O. Farkas, 
 J. B. Foresman, and D. J. Fox, Gaussian, Inc., Wallingford CT, 2016.
 
 ******************************************
 Gaussian 16:  ES64L-G16RevA.03 25-Dec-2016
                 8-Aug-2020 
 ******************************************
 %chk=3-MeOPhN2+_UB3LYP-aug-cc-pVDZ-Opt.chk
 %mem=500MW
 %nproc=7
 Will use up to    7 processors via shared memory.
 ----------------------------------------------------------------------
 #p opt=(maxcycles=777) freq ub3lyp/aug-cc-pVDZ pop=(Bonding,AllOrbital
 s,mk,no,nboread)
 ----------------------------------------------------------------------
 1/6=777,18=20,19=15,26=3,38=1/1,3;
 2/9=110,12=2,17=6,18=5,40=1/2;
 3/5=16,7=10,11=2,25=1,30=1,71=1,74=-5,116=2/1,2,3;
 4//1;
 5/5=2,38=5/2;
 6/7=2,8=2,9=2,10=2,15=8,20=1,22=-1,27=20,28=1,31=1,40=2,96=-1/1,2,7;
 7//1,2,3,16;
 1/6=777,18=20,19=15,26=3/3(2);
 2/9=110/2;
 99//99;
 2/9=110/2;
 3/5=16,7=10,11=2,25=1,30=1,71=1,74=-5,116=2/1,2,3;
 4/5=5,16=3,69=1/1;
 5/5=2,38=5/2;
 7//1,2,3,16;
 1/6=777,18=20,19=15,26=3/3(-5);
 2/9=110/2;
 6/7=2,8=2,9=2,10=2,15=8,19=2,20=1,22=-1,27=20,28=1,31=1,40=2,96=-1/1,2,7;
 99/9=1/99;
 Leave Link    1 at Sat Aug  8 23:57:03 2020, MaxMem=   524288000 cpu:               0.3 elap:               0.0
 (Enter /home/ubuntu/g16/l101.exe)
 -----------------------------
 3-MeOPhN2+_UB3LYP-aug-cc-pVDZ
 -----------------------------
 Symbolic Z-matrix:
 Charge =  1 Multiplicity = 1
 C                     1.30561   1.39692  -0.00006 
 C                     0.03564   1.96098   0.00001 
 C                     1.35024  -0.01275   0. 
 C                    -1.11686   1.16399   0.00016 
 C                     0.22933  -0.8569    0.00019 
 C                    -1.03513  -0.2477    0.00027 
 N                     2.59757  -0.61351  -0.00011 
 N                     3.60479  -1.08859  -0.00015 
 H                    -0.06501   3.04538  -0.00006 
 H                    -2.08852   1.65242   0.00022 
 H                     0.31977  -1.94125   0.00023 
 H                     2.21347   1.99561  -0.00018 
 O                    -2.07903  -1.08266   0.00031 
 C                    -3.41911  -0.5471   -0.00042 
 H                    -3.59423   0.04991  -0.90538 
 H                    -4.07333  -1.42136  -0.0003 
 H                    -3.59479   0.05063   0.90396 
 
 ITRead=  0  0  0  0  0  0  0  0  0  0  0  0  0  0  0  0  0
 MicOpt= -1 -1 -1 -1 -1 -1 -1 -1 -1 -1 -1 -1 -1 -1 -1 -1 -1
 NAtoms=     17 NQM=       17 NQMF=       0 NMMI=      0 NMMIF=      0
                NMic=       0 NMicF=      0.
                    Isotopes and Nuclear Properties:
 (Nuclear quadrupole moments (NQMom) in fm**2, nuclear magnetic moments (NMagM)
  in nuclear magnetons)

  Atom         1           2           3           4           5           6           7           8           9          10
 IAtWgt=          12          12          12          12          12          12          14          14           1           1
 AtmWgt=  12.0000000  12.0000000  12.0000000  12.0000000  12.0000000  12.0000000  14.0030740  14.0030740   1.0078250   1.0078250
 NucSpn=           0           0           0           0           0           0           2           2           1           1
 AtZEff=  -0.0000000  -0.0000000  -0.0000000  -0.0000000  -0.0000000  -0.0000000  -0.0000000  -0.0000000  -0.0000000  -0.0000000
 NQMom=    0.0000000   0.0000000   0.0000000   0.0000000   0.0000000   0.0000000   2.0440000   2.0440000   0.0000000   0.0000000
 NMagM=    0.0000000   0.0000000   0.0000000   0.0000000   0.0000000   0.0000000   0.4037610   0.4037610   2.7928460   2.7928460
 AtZNuc=   6.0000000   6.0000000   6.0000000   6.0000000   6.0000000   6.0000000   7.0000000   7.0000000   1.0000000   1.0000000

  Atom        11          12          13          14          15          16          17
 IAtWgt=           1           1          16          12           1           1           1
 AtmWgt=   1.0078250   1.0078250  15.9949146  12.0000000   1.0078250   1.0078250   1.0078250
 NucSpn=           1           1           0           0           1           1           1
 AtZEff=  -0.0000000  -0.0000000  -0.0000000  -0.0000000  -0.0000000  -0.0000000  -0.0000000
 NQMom=    0.0000000   0.0000000   0.0000000   0.0000000   0.0000000   0.0000000   0.0000000
 NMagM=    2.7928460   2.7928460   0.0000000   0.0000000   2.7928460   2.7928460   2.7928460
 AtZNuc=   1.0000000   1.0000000   8.0000000   6.0000000   1.0000000   1.0000000   1.0000000
 Leave Link  101 at Sat Aug  8 23:57:03 2020, MaxMem=   524288000 cpu:               0.6 elap:               0.1
 (Enter /home/ubuntu/g16/l103.exe)

 GradGradGradGradGradGradGradGradGradGradGradGradGradGradGradGradGradGrad
 Berny optimization.
 Initialization pass.
                           ----------------------------
                           !    Initial Parameters    !
                           ! (Angstroms and Degrees)  !
 --------------------------                            --------------------------
 ! Name  Definition              Value          Derivative Info.                !
 --------------------------------------------------------------------------------
 ! R1    R(1,2)                  1.3896         estimate D2E/DX2                !
 ! R2    R(1,3)                  1.4104         estimate D2E/DX2                !
 ! R3    R(1,12)                 1.0875         estimate D2E/DX2                !
 ! R4    R(2,4)                  1.4012         estimate D2E/DX2                !
 ! R5    R(2,9)                  1.0891         estimate D2E/DX2                !
 ! R6    R(3,5)                  1.4032         estimate D2E/DX2                !
 ! R7    R(3,7)                  1.3845         estimate D2E/DX2                !
 ! R8    R(4,6)                  1.4141         estimate D2E/DX2                !
 ! R9    R(4,10)                 1.0875         estimate D2E/DX2                !
 ! R10   R(5,6)                  1.4036         estimate D2E/DX2                !
 ! R11   R(5,11)                 1.0881         estimate D2E/DX2                !
 ! R12   R(6,13)                 1.3367         estimate D2E/DX2                !
 ! R13   R(7,8)                  1.1136         estimate D2E/DX2                !
 ! R14   R(13,14)                1.4431         estimate D2E/DX2                !
 ! R15   R(14,15)                1.0982         estimate D2E/DX2                !
 ! R16   R(14,16)                1.0919         estimate D2E/DX2                !
 ! R17   R(14,17)                1.0982         estimate D2E/DX2                !
 ! A1    A(2,1,3)              115.7619         estimate D2E/DX2                !
 ! A2    A(2,1,12)             122.6486         estimate D2E/DX2                !
 ! A3    A(3,1,12)             121.5896         estimate D2E/DX2                !
 ! A4    A(1,2,4)              121.3864         estimate D2E/DX2                !
 ! A5    A(1,2,9)              119.2513         estimate D2E/DX2                !
 ! A6    A(4,2,9)              119.3623         estimate D2E/DX2                !
 ! A7    A(1,3,5)              125.1698         estimate D2E/DX2                !
 ! A8    A(1,3,7)              117.5305         estimate D2E/DX2                !
 ! A9    A(5,3,7)              117.2997         estimate D2E/DX2                !
 ! A10   A(2,4,6)              121.3516         estimate D2E/DX2                !
 ! A11   A(2,4,10)             118.6474         estimate D2E/DX2                !
 ! A12   A(6,4,10)             120.001          estimate D2E/DX2                !
 ! A13   A(3,5,6)              117.2927         estimate D2E/DX2                !
 ! A14   A(3,5,11)             122.2155         estimate D2E/DX2                !
 ! A15   A(6,5,11)             120.4919         estimate D2E/DX2                !
 ! A16   A(4,6,5)              119.0376         estimate D2E/DX2                !
 ! A17   A(4,6,13)             125.341          estimate D2E/DX2                !
 ! A18   A(5,6,13)             115.6214         estimate D2E/DX2                !
 ! A19   A(6,13,14)            119.5615         estimate D2E/DX2                !
 ! A20   A(13,14,15)           110.5017         estimate D2E/DX2                !
 ! A21   A(13,14,16)           105.024          estimate D2E/DX2                !
 ! A22   A(13,14,17)           110.4945         estimate D2E/DX2                !
 ! A23   A(15,14,16)           109.865          estimate D2E/DX2                !
 ! A24   A(15,14,17)           110.929          estimate D2E/DX2                !
 ! A25   A(16,14,17)           109.8673         estimate D2E/DX2                !
 ! A26   L(3,7,8,12,-1)        179.5349         estimate D2E/DX2                !
 ! A27   L(3,7,8,12,-2)        179.997          estimate D2E/DX2                !
 ! D1    D(3,1,2,4)              0.0013         estimate D2E/DX2                !
 ! D2    D(3,1,2,9)           -179.9983         estimate D2E/DX2                !
 ! D3    D(12,1,2,4)           179.9998         estimate D2E/DX2                !
 ! D4    D(12,1,2,9)             0.0002         estimate D2E/DX2                !
 ! D5    D(2,1,3,5)             -0.0034         estimate D2E/DX2                !
 ! D6    D(2,1,3,7)            179.998          estimate D2E/DX2                !
 ! D7    D(12,1,3,5)           179.9982         estimate D2E/DX2                !
 ! D8    D(12,1,3,7)            -0.0005         estimate D2E/DX2                !
 ! D9    D(1,2,4,6)              0.0011         estimate D2E/DX2                !
 ! D10   D(1,2,4,10)           179.9994         estimate D2E/DX2                !
 ! D11   D(9,2,4,6)           -179.9993         estimate D2E/DX2                !
 ! D12   D(9,2,4,10)            -0.001          estimate D2E/DX2                !
 ! D13   D(1,3,5,6)              0.0028         estimate D2E/DX2                !
 ! D14   D(1,3,5,11)          -179.9999         estimate D2E/DX2                !
 ! D15   D(7,3,5,6)           -179.9986         estimate D2E/DX2                !
 ! D16   D(7,3,5,11)            -0.0013         estimate D2E/DX2                !
 ! D17   D(2,4,6,5)             -0.0017         estimate D2E/DX2                !
 ! D18   D(2,4,6,13)          -179.9945         estimate D2E/DX2                !
 ! D19   D(10,4,6,5)          -180.0            estimate D2E/DX2                !
 ! D20   D(10,4,6,13)            0.0073         estimate D2E/DX2                !
 ! D21   D(3,5,6,4)             -0.0001         estimate D2E/DX2                !
 ! D22   D(3,5,6,13)           179.9933         estimate D2E/DX2                !
 ! D23   D(11,5,6,4)          -179.9975         estimate D2E/DX2                !
 ! D24   D(11,5,6,13)           -0.004          estimate D2E/DX2                !
 ! D25   D(4,6,13,14)            0.03           estimate D2E/DX2                !
 ! D26   D(5,6,13,14)         -179.9629         estimate D2E/DX2                !
 ! D27   D(6,13,14,15)          61.5726         estimate D2E/DX2                !
 ! D28   D(6,13,14,16)         179.9959         estimate D2E/DX2                !
 ! D29   D(6,13,14,17)         -61.5818         estimate D2E/DX2                !
 --------------------------------------------------------------------------------
 Trust Radius=3.00D-01 FncErr=1.00D-07 GrdErr=1.00D-06 EigMax=2.50D+02 EigMin=1.00D-04
 Number of steps in this run=    102 maximum allowed number of steps=    102.
 GradGradGradGradGradGradGradGradGradGradGradGradGradGradGradGradGradGrad

 Leave Link  103 at Sat Aug  8 23:57:03 2020, MaxMem=   524288000 cpu:               0.1 elap:               0.0
 (Enter /home/ubuntu/g16/l202.exe)
                          Input orientation:                          
 ---------------------------------------------------------------------
 Center     Atomic      Atomic             Coordinates (Angstroms)
 Number     Number       Type             X           Y           Z
 ---------------------------------------------------------------------
      1          6           0        1.305610    1.396920   -0.000060
      2          6           0        0.035640    1.960980    0.000010
      3          6           0        1.350240   -0.012750    0.000000
      4          6           0       -1.116860    1.163990    0.000160
      5          6           0        0.229330   -0.856900    0.000190
      6          6           0       -1.035130   -0.247700    0.000270
      7          7           0        2.597570   -0.613510   -0.000110
      8          7           0        3.604790   -1.088590   -0.000150
      9          1           0       -0.065010    3.045380   -0.000060
     10          1           0       -2.088520    1.652420    0.000220
     11          1           0        0.319770   -1.941250    0.000230
     12          1           0        2.213470    1.995610   -0.000180
     13          8           0       -2.079030   -1.082660    0.000310
     14          6           0       -3.419110   -0.547100   -0.000420
     15          1           0       -3.594230    0.049910   -0.905380
     16          1           0       -4.073330   -1.421360   -0.000300
     17          1           0       -3.594790    0.050630    0.903960
 ---------------------------------------------------------------------
                    Distance matrix (angstroms):
                    1          2          3          4          5
     1  C    0.000000
     2  C    1.389600   0.000000
     3  C    1.410376   2.371452   0.000000
     4  C    2.433643   1.401231   2.733368   0.000000
     5  C    2.497616   2.824529   1.403221   2.428214   0.000000
     6  C    2.860741   2.454550   2.396913   1.414054   1.403561
     7  N    2.389768   3.632008   1.384465   4.117827   2.380714
     8  N    3.385851   4.694540   2.498085   5.231453   3.383402
     9  H    2.143833   1.089061   3.369732   2.155462   3.913365
    10  H    3.403733   2.146454   3.820715   1.087514   3.416009
    11  H    3.480698   3.912560   2.186545   3.421465   1.088115
    12  H    1.087492   2.178105   2.186018   3.432592   3.474712
    13  O    4.195725   3.706153   3.592297   2.444015   2.319374
    14  C    5.109031   4.269164   4.799191   2.868481   3.661569
    15  H    5.161635   4.200937   5.027069   2.863309   4.032614
    16  H    6.072536   5.322016   5.603507   3.927436   4.339527
    17  H    5.161751   4.200784   5.027373   2.862964   4.032903
                    6          7          8          9         10
     6  C    0.000000
     7  N    3.651072   0.000000
     8  N    4.715501   1.113640   0.000000
     9  H    3.433003   4.525131   5.527851   0.000000
    10  H    2.172576   5.205178   6.318775   2.456610   0.000000
    11  H    2.168840   2.636525   3.393875   5.001453   4.326006
    12  H    3.947891   2.637241   3.383498   2.508683   4.315657
    13  O    1.336744   4.700073   5.683823   4.593146   2.735096
    14  C    2.402707   6.017047   7.044741   4.914865   2.570673
    15  H    2.730891   6.292696   7.344489   4.716761   2.378090
    16  H    3.257014   6.719638   7.685328   6.001533   3.658906
    17  H    2.730845   6.293151   7.345011   4.716474   2.377252
                   11         12         13         14         15
    11  H    0.000000
    12  H    4.368634   0.000000
    13  O    2.547826   5.282168   0.000000
    14  C    3.990348   6.179914   1.443135   0.000000
    15  H    4.483776   6.191487   2.097336   1.098199   0.000000
    16  H    4.423756   7.155385   2.022857   1.091941   1.792580
    17  H    4.484205   6.191631   2.097250   1.098202   1.809340
                   16         17
    16  H    0.000000
    17  H    1.792607   0.000000
 Stoichiometry    C7H7N2O(1+)
 Framework group  C1[X(C7H7N2O)]
 Deg. of freedom    45
 Full point group                 C1      NOp   1
 Largest Abelian subgroup         C1      NOp   1
 Largest concise Abelian subgroup C1      NOp   1
                         Standard orientation:                         
 ---------------------------------------------------------------------
 Center     Atomic      Atomic             Coordinates (Angstroms)
 Number     Number       Type             X           Y           Z
 ---------------------------------------------------------------------
      1          6           0       -1.305611    1.396919    0.000061
      2          6           0       -0.035642    1.960980   -0.000009
      3          6           0       -1.350241   -0.012751    0.000001
      4          6           0        1.116859    1.163991   -0.000159
      5          6           0       -0.229330   -0.856900   -0.000189
      6          6           0        1.035130   -0.247699   -0.000269
      7          7           0       -2.597570   -0.613512    0.000111
      8          7           0       -3.604790   -1.088592    0.000151
      9          1           0        0.065007    3.045380    0.000061
     10          1           0        2.088518    1.652421   -0.000219
     11          1           0       -0.319769   -1.941250   -0.000229
     12          1           0       -2.213472    1.995609    0.000181
     13          8           0        2.079030   -1.082659   -0.000309
     14          6           0        3.419110   -0.547098    0.000421
     15          1           0        3.594229    0.049912    0.905381
     16          1           0        4.073330   -1.421357    0.000301
     17          1           0        3.594789    0.050632   -0.903959
 ---------------------------------------------------------------------
 Rotational constants (GHZ):           3.0999570           0.8288664           0.6568042
 Leave Link  202 at Sat Aug  8 23:57:03 2020, MaxMem=   524288000 cpu:               0.1 elap:               0.0
 (Enter /home/ubuntu/g16/l301.exe)
 Standard basis: Aug-CC-pVDZ (5D, 7F)
 Ernie: Thresh=  0.10000D-02 Tol=  0.10000D-05 Strict=F.
 Ernie:  20 primitive shells out of 299 were deleted.
 There are   313 symmetry adapted cartesian basis functions of A   symmetry.
 There are   293 symmetry adapted basis functions of A   symmetry.
   293 basis functions,   507 primitive gaussians,   313 cartesian basis functions
    35 alpha electrons       35 beta electrons
       nuclear repulsion energy       473.9914315243 Hartrees.
 IExCor=  402 DFT=T Ex+Corr=B3LYP ExCW=0 ScaHFX=  0.200000
 ScaDFX=  0.800000  0.720000  1.000000  0.810000 ScalE2=  1.000000  1.000000
 IRadAn=      5 IRanWt=     -1 IRanGd=            0 ICorTp=0 IEmpDi=  4
 NAtoms=   17 NActive=   17 NUniq=   17 SFac= 1.00D+00 NAtFMM=   60 NAOKFM=F Big=F
 Integral buffers will be    131072 words long.
 Raffenetti 2 integral format.
 Two-electron integral symmetry is turned on.
 Leave Link  301 at Sat Aug  8 23:57:03 2020, MaxMem=   524288000 cpu:               0.2 elap:               0.0
 (Enter /home/ubuntu/g16/l302.exe)
 NPDir=0 NMtPBC=     1 NCelOv=     1 NCel=       1 NClECP=     1 NCelD=      1
         NCelK=      1 NCelE2=     1 NClLst=     1 CellRange=     0.0.
 One-electron integrals computed using PRISM.
 One-electron integral symmetry used in STVInt
 NBasis=   293 RedAO= T EigKep=  2.20D-06  NBF=   293
 NBsUse=   293 1.00D-06 EigRej= -1.00D+00 NBFU=   293
 Precomputing XC quadrature grid using
 IXCGrd= 4 IRadAn=           5 IRanWt=          -1 IRanGd=           0 AccXCQ= 0.00D+00.
 Generated NRdTot=       0 NPtTot=           0 NUsed=           0 NTot=          32
 NSgBfM=   313   313   313   313   313 MxSgAt=    17 MxSgA2=    17.
 Leave Link  302 at Sat Aug  8 23:57:04 2020, MaxMem=   524288000 cpu:               2.7 elap:               0.4
 (Enter /home/ubuntu/g16/l303.exe)
 DipDrv:  MaxL=1.
 Leave Link  303 at Sat Aug  8 23:57:04 2020, MaxMem=   524288000 cpu:               0.3 elap:               0.0
 (Enter /home/ubuntu/g16/l401.exe)
 ExpMin= 2.97D-02 ExpMax= 1.17D+04 ExpMxC= 4.01D+02 IAcc=3 IRadAn=         5 AccDes= 0.00D+00
 Harris functional with IExCor=  402 and IRadAn=       5 diagonalized for initial guess.
 HarFok:  IExCor=  402 AccDes= 0.00D+00 IRadAn=         5 IDoV= 1 UseB2=F ITyADJ=14
 ICtDFT=  3500011 ScaDFX=  1.000000  1.000000  1.000000  1.000000
 FoFCou: FMM=F IPFlag=           0 FMFlag=      100000 FMFlg1=           0
         NFxFlg=           0 DoJE=T BraDBF=F KetDBF=T FulRan=T
         wScrn=  0.000000 ICntrl=       500 IOpCl=  0 I1Cent=   200000004 NGrid=           0
         NMat0=    1 NMatS0=      1 NMatT0=    0 NMatD0=    1 NMtDS0=    0 NMtDT0=    0
 Petite list used in FoFCou.
 Harris En= -455.452164678275    
 JPrj=0 DoOrth=F DoCkMO=F.
 Initial guess <Sx>= 0.0000 <Sy>= 0.0000 <Sz>= 0.0000 <S**2>=-0.0000 S=-0.0000
 Leave Link  401 at Sat Aug  8 23:57:07 2020, MaxMem=   524288000 cpu:              22.0 elap:               3.2
 (Enter /home/ubuntu/g16/l502.exe)
 Integral symmetry usage will be decided dynamically.
 UHF open shell SCF:
 Using DIIS extrapolation, IDIIS=  1040.
 NGot=   524288000 LenX=   524086876 LenY=   523988466
 Requested convergence on RMS density matrix=1.00D-08 within 128 cycles.
 Requested convergence on MAX density matrix=1.00D-06.
 Requested convergence on             energy=1.00D-06.
 No special actions if energy rises.
 Fock matrices will be formed incrementally for  20 cycles.

 Cycle   1  Pass 1  IDiag  1:
 FoFJK:  IHMeth= 1 ICntrl=       0 DoSepK=F KAlg= 0 I1Cent=           0 FoldK=F
 IRaf= 980000000 NMat=       1 IRICut=       1 DoRegI=T DoRafI=F ISym2E= 0 IDoP0=0 IntGTp=1.
 FoFCou: FMM=F IPFlag=           0 FMFlag=      100000 FMFlg1=           0
         NFxFlg=           0 DoJE=F BraDBF=F KetDBF=F FulRan=T
         wScrn=  0.000000 ICntrl=         0 IOpCl=  1 I1Cent=           0 NGrid=           0
         NMat0=    1 NMatS0=      1 NMatT0=    0 NMatD0=    1 NMtDS0=    0 NMtDT0=    0
 Symmetry not used in FoFCou.
 E= -455.214008226234    
 DIIS: error= 1.86D-02 at cycle   1 NSaved=   1.
 NSaved= 1 IEnMin= 1 EnMin= -455.214008226234     IErMin= 1 ErrMin= 1.86D-02
 ErrMax= 1.86D-02  0.00D+00 EMaxC= 1.00D-01 BMatC= 7.23D-01 BMatP= 7.23D-01
 IDIUse=3 WtCom= 8.14D-01 WtEn= 1.86D-01
 Coeff-Com:  0.100D+01
 Coeff-En:   0.100D+01
 Coeff:      0.100D+01
 Gap=     0.055 Goal=   None    Shift=    0.000
 Gap=     0.055 Goal=   None    Shift=    0.000
 GapD=    0.055 DampG=0.500 DampE=0.500 DampFc=0.2500 IDamp=-1.
 Damping current iteration by 2.50D-01
 RMSDP=4.06D-02 MaxDP=2.55D+00              OVMax= 9.33D-01

 Cycle   2  Pass 1  IDiag  1:
 RMSU=  4.58D-03    CP:  9.21D-01
 E= -455.110764543537     Delta-E=        0.103243682697 Rises=F Damp=T
 DIIS: error= 1.02D-02 at cycle   2 NSaved=   2.
 NSaved= 2 IEnMin= 1 EnMin= -455.214008226234     IErMin= 2 ErrMin= 1.02D-02
 ErrMax= 1.02D-02  0.00D+00 EMaxC= 1.00D-01 BMatC= 2.20D-01 BMatP= 7.23D-01
 IDIUse=3 WtCom= 8.98D-01 WtEn= 1.02D-01
 Coeff-Com:  0.162D+00 0.838D+00
 Coeff-En:   0.683D+00 0.317D+00
 Coeff:      0.215D+00 0.785D+00
 Gap=    -0.068 Goal=   None    Shift=    0.000
 Gap=    -0.068 Goal=   None    Shift=    0.000
 RMSDP=3.43D-02 MaxDP=2.51D+00 DE= 1.03D-01 OVMax= 9.84D-01

 Cycle   3  Pass 1  IDiag  1:
 RMSU=  8.43D-03    CP:  6.34D-01  2.38D+00
 E= -455.256686850753     Delta-E=       -0.145922307215 Rises=F Damp=F
 DIIS: error= 2.21D-02 at cycle   3 NSaved=   3.
 NSaved= 3 IEnMin= 3 EnMin= -455.256686850753     IErMin= 2 ErrMin= 1.02D-02
 ErrMax= 2.21D-02  0.00D+00 EMaxC= 1.00D-01 BMatC= 5.58D-01 BMatP= 2.20D-01
 IDIUse=2 WtCom= 0.00D+00 WtEn= 1.00D+00
 EnCoef did     2 forward-backward iterations
 Coeff-En:   0.192D+00 0.235D+00 0.573D+00
 Coeff:      0.192D+00 0.235D+00 0.573D+00
 Gap=     0.109 Goal=   None    Shift=    0.000
 Gap=     0.109 Goal=   None    Shift=    0.000
 RMSDP=7.97D-03 MaxDP=5.75D-01 DE=-1.46D-01 OVMax= 3.34D-01

 Cycle   4  Pass 1  IDiag  1:
 RMSU=  4.93D-03    CP:  6.71D-01  2.50D+00  4.51D-01
 E= -455.143517934665     Delta-E=        0.113168916088 Rises=F Damp=F
 DIIS: error= 3.44D-02 at cycle   4 NSaved=   4.
 NSaved= 4 IEnMin= 3 EnMin= -455.256686850753     IErMin= 2 ErrMin= 1.02D-02
 ErrMax= 3.44D-02  0.00D+00 EMaxC= 1.00D-01 BMatC= 9.98D-01 BMatP= 2.20D-01
 IDIUse=2 WtCom= 0.00D+00 WtEn= 1.00D+00
 EnCoef did     3 forward-backward iterations
 Coeff-En:   0.464D-01 0.000D+00 0.562D+00 0.392D+00
 Coeff:      0.464D-01 0.000D+00 0.562D+00 0.392D+00
 Gap=     0.114 Goal=   None    Shift=    0.000
 Gap=     0.114 Goal=   None    Shift=    0.000
 RMSDP=4.42D-03 MaxDP=2.24D-01 DE= 1.13D-01 OVMax= 2.77D-01

 Cycle   5  Pass 1  IDiag  1:
 RMSU=  2.42D-03    CP:  6.66D-01  1.96D+00  6.91D-01  6.31D-01
 E= -455.408719336907     Delta-E=       -0.265201402242 Rises=F Damp=F
 DIIS: error= 4.43D-03 at cycle   5 NSaved=   5.
 NSaved= 5 IEnMin= 5 EnMin= -455.408719336907     IErMin= 5 ErrMin= 4.43D-03
 ErrMax= 4.43D-03  0.00D+00 EMaxC= 1.00D-01 BMatC= 5.67D-02 BMatP= 2.20D-01
 IDIUse=3 WtCom= 9.56D-01 WtEn= 4.43D-02
 Coeff-Com: -0.374D-01 0.167D+00 0.284D+00 0.129D+00 0.458D+00
 Coeff-En:   0.000D+00 0.000D+00 0.000D+00 0.000D+00 0.100D+01
 Coeff:     -0.358D-01 0.159D+00 0.271D+00 0.123D+00 0.482D+00
 Gap=     0.134 Goal=   None    Shift=    0.000
 Gap=     0.134 Goal=   None    Shift=    0.000
 RMSDP=2.26D-03 MaxDP=9.63D-02 DE=-2.65D-01 OVMax= 8.73D-02

 Cycle   6  Pass 1  IDiag  1:
 RMSU=  1.13D-03    CP:  6.63D-01  2.21D+00  7.51D-01  4.78D-01  4.88D-01
 E= -455.417045909088     Delta-E=       -0.008326572181 Rises=F Damp=F
 DIIS: error= 3.67D-03 at cycle   6 NSaved=   6.
 NSaved= 6 IEnMin= 6 EnMin= -455.417045909088     IErMin= 6 ErrMin= 3.67D-03
 ErrMax= 3.67D-03  0.00D+00 EMaxC= 1.00D-01 BMatC= 2.49D-02 BMatP= 5.67D-02
 IDIUse=3 WtCom= 9.63D-01 WtEn= 3.67D-02
 Coeff-Com: -0.108D+00 0.125D+00 0.608D-01-0.667D-03 0.385D+00 0.537D+00
 Coeff-En:   0.000D+00 0.000D+00 0.000D+00 0.000D+00 0.295D+00 0.705D+00
 Coeff:     -0.104D+00 0.120D+00 0.585D-01-0.643D-03 0.382D+00 0.543D+00
 Gap=     0.126 Goal=   None    Shift=    0.000
 Gap=     0.126 Goal=   None    Shift=    0.000
 RMSDP=6.74D-04 MaxDP=2.07D-02 DE=-8.33D-03 OVMax= 3.46D-02

 Cycle   7  Pass 1  IDiag  1:
 RMSU=  3.27D-04    CP:  6.62D-01  2.19D+00  7.38D-01  5.01D-01  6.48D-01
                    CP:  6.66D-01
 E= -455.422407996566     Delta-E=       -0.005362087478 Rises=F Damp=F
 DIIS: error= 1.99D-03 at cycle   7 NSaved=   7.
 NSaved= 7 IEnMin= 7 EnMin= -455.422407996566     IErMin= 7 ErrMin= 1.99D-03
 ErrMax= 1.99D-03  0.00D+00 EMaxC= 1.00D-01 BMatC= 4.00D-03 BMatP= 2.49D-02
 IDIUse=3 WtCom= 9.80D-01 WtEn= 1.99D-02
 Coeff-Com: -0.766D-01 0.894D-01 0.102D-01-0.106D-02 0.191D+00 0.292D+00
 Coeff-Com:  0.494D+00
 Coeff-En:   0.000D+00 0.000D+00 0.000D+00 0.000D+00 0.000D+00 0.000D+00
 Coeff-En:   0.100D+01
 Coeff:     -0.750D-01 0.876D-01 0.100D-01-0.104D-02 0.187D+00 0.287D+00
 Coeff:      0.505D+00
 Gap=     0.124 Goal=   None    Shift=    0.000
 Gap=     0.124 Goal=   None    Shift=    0.000
 RMSDP=2.33D-04 MaxDP=9.22D-03 DE=-5.36D-03 OVMax= 6.71D-03

 Cycle   8  Pass 1  IDiag  1:
 RMSU=  1.80D-04    CP:  6.62D-01  2.19D+00  7.29D-01  5.05D-01  6.77D-01
                    CP:  6.69D-01  7.96D-01
 E= -455.423133625197     Delta-E=       -0.000725628631 Rises=F Damp=F
 DIIS: error= 1.32D-03 at cycle   8 NSaved=   8.
 NSaved= 8 IEnMin= 8 EnMin= -455.423133625197     IErMin= 8 ErrMin= 1.32D-03
 ErrMax= 1.32D-03  0.00D+00 EMaxC= 1.00D-01 BMatC= 1.94D-03 BMatP= 4.00D-03
 IDIUse=3 WtCom= 9.87D-01 WtEn= 1.32D-02
 Coeff-Com: -0.280D-01 0.381D-01-0.226D-01 0.697D-02-0.208D-01-0.529D-01
 Coeff-Com:  0.195D+00 0.884D+00
 Coeff-En:   0.000D+00 0.000D+00 0.000D+00 0.000D+00 0.000D+00 0.000D+00
 Coeff-En:   0.000D+00 0.100D+01
 Coeff:     -0.276D-01 0.376D-01-0.223D-01 0.688D-02-0.205D-01-0.522D-01
 Coeff:      0.193D+00 0.886D+00
 Gap=     0.120 Goal=   None    Shift=    0.000
 Gap=     0.120 Goal=   None    Shift=    0.000
 RMSDP=2.04D-04 MaxDP=8.77D-03 DE=-7.26D-04 OVMax= 1.13D-02

 Cycle   9  Pass 1  IDiag  1:
 RMSU=  9.63D-05    CP:  6.63D-01  2.20D+00  7.20D-01  5.19D-01  7.01D-01
                    CP:  7.09D-01  9.53D-01  8.92D-01
 E= -455.423724001575     Delta-E=       -0.000590376378 Rises=F Damp=F
 DIIS: error= 6.80D-04 at cycle   9 NSaved=   9.
 NSaved= 9 IEnMin= 9 EnMin= -455.423724001575     IErMin= 9 ErrMin= 6.80D-04
 ErrMax= 6.80D-04  0.00D+00 EMaxC= 1.00D-01 BMatC= 4.30D-04 BMatP= 1.94D-03
 IDIUse=3 WtCom= 9.93D-01 WtEn= 6.80D-03
 Coeff-Com:  0.732D-03-0.900D-03-0.216D-01 0.106D-01-0.671D-01-0.135D+00
 Coeff-Com: -0.808D-01 0.605D+00 0.689D+00
 Coeff-En:   0.000D+00 0.000D+00 0.000D+00 0.000D+00 0.000D+00 0.000D+00
 Coeff-En:   0.000D+00 0.000D+00 0.100D+01
 Coeff:      0.727D-03-0.894D-03-0.214D-01 0.105D-01-0.667D-01-0.134D+00
 Coeff:     -0.803D-01 0.600D+00 0.691D+00
 Gap=     0.118 Goal=   None    Shift=    0.000
 Gap=     0.118 Goal=   None    Shift=    0.000
 RMSDP=1.24D-04 MaxDP=3.10D-03 DE=-5.90D-04 OVMax= 6.26D-03

 Cycle  10  Pass 1  IDiag  1:
 RMSU=  6.00D-05    CP:  6.64D-01  2.21D+00  7.15D-01  5.26D-01  7.14D-01
                    CP:  7.13D-01  1.04D+00  1.21D+00  8.37D-01
 E= -455.423858758370     Delta-E=       -0.000134756795 Rises=F Damp=F
 DIIS: error= 9.11D-05 at cycle  10 NSaved=  10.
 NSaved=10 IEnMin=10 EnMin= -455.423858758370     IErMin=10 ErrMin= 9.11D-05
 ErrMax= 9.11D-05  0.00D+00 EMaxC= 1.00D-01 BMatC= 1.71D-05 BMatP= 4.30D-04
 IDIUse=1 WtCom= 1.00D+00 WtEn= 0.00D+00
 Coeff-Com:  0.120D-02-0.199D-02-0.613D-02 0.406D-02-0.198D-01-0.450D-01
 Coeff-Com: -0.576D-01 0.172D+00 0.372D+00 0.581D+00
 Coeff:      0.120D-02-0.199D-02-0.613D-02 0.406D-02-0.198D-01-0.450D-01
 Coeff:     -0.576D-01 0.172D+00 0.372D+00 0.581D+00
 Gap=     0.118 Goal=   None    Shift=    0.000
 Gap=     0.118 Goal=   None    Shift=    0.000
 RMSDP=3.79D-05 MaxDP=2.19D-03 DE=-1.35D-04 OVMax= 9.10D-04

 Cycle  11  Pass 1  IDiag  1:
 RMSU=  2.73D-05    CP:  6.63D-01  2.21D+00  7.13D-01  5.26D-01  7.15D-01
                    CP:  7.07D-01  1.03D+00  1.23D+00  9.39D-01  7.36D-01
 E= -455.423861872664     Delta-E=       -0.000003114294 Rises=F Damp=F
 DIIS: error= 4.19D-05 at cycle  11 NSaved=  11.
 NSaved=11 IEnMin=11 EnMin= -455.423861872664     IErMin=11 ErrMin= 4.19D-05
 ErrMax= 4.19D-05  0.00D+00 EMaxC= 1.00D-01 BMatC= 3.69D-06 BMatP= 1.71D-05
 IDIUse=1 WtCom= 1.00D+00 WtEn= 0.00D+00
 Coeff-Com:  0.352D-03-0.445D-03 0.468D-03 0.514D-04 0.175D-02 0.458D-03
 Coeff-Com: -0.101D-01-0.286D-03 0.747D-01 0.262D+00 0.671D+00
 Coeff:      0.352D-03-0.445D-03 0.468D-03 0.514D-04 0.175D-02 0.458D-03
 Coeff:     -0.101D-01-0.286D-03 0.747D-01 0.262D+00 0.671D+00
 Gap=     0.118 Goal=   None    Shift=    0.000
 Gap=     0.118 Goal=   None    Shift=    0.000
 RMSDP=1.37D-05 MaxDP=4.05D-04 DE=-3.11D-06 OVMax= 3.76D-04

 Cycle  12  Pass 1  IDiag  1:
 RMSU=  6.54D-06    CP:  6.63D-01  2.21D+00  7.14D-01  5.26D-01  7.14D-01
                    CP:  7.05D-01  1.02D+00  1.21D+00  9.19D-01  7.46D-01
                    CP:  7.27D-01
 E= -455.423862913847     Delta-E=       -0.000001041183 Rises=F Damp=F
 DIIS: error= 1.67D-05 at cycle  12 NSaved=  12.
 NSaved=12 IEnMin=12 EnMin= -455.423862913847     IErMin=12 ErrMin= 1.67D-05
 ErrMax= 1.67D-05  0.00D+00 EMaxC= 1.00D-01 BMatC= 3.72D-07 BMatP= 3.69D-06
 IDIUse=1 WtCom= 1.00D+00 WtEn= 0.00D+00
 Coeff-Com:  0.142D-03-0.131D-03 0.525D-03-0.188D-03 0.177D-02 0.156D-02
 Coeff-Com: -0.316D-02-0.364D-02 0.310D-01 0.130D+00 0.388D+00 0.454D+00
 Coeff:      0.142D-03-0.131D-03 0.525D-03-0.188D-03 0.177D-02 0.156D-02
 Coeff:     -0.316D-02-0.364D-02 0.310D-01 0.130D+00 0.388D+00 0.454D+00
 Gap=     0.118 Goal=   None    Shift=    0.000
 Gap=     0.118 Goal=   None    Shift=    0.000
 RMSDP=2.87D-06 MaxDP=1.18D-04 DE=-1.04D-06 OVMax= 1.30D-04

 Cycle  13  Pass 1  IDiag  1:
 RMSU=  1.68D-06    CP:  6.63D-01  2.21D+00  7.14D-01  5.26D-01  7.14D-01
                    CP:  7.06D-01  1.02D+00  1.21D+00  9.18D-01  7.47D-01
                    CP:  7.55D-01  8.93D-01
 E= -455.423863006832     Delta-E=       -0.000000092985 Rises=F Damp=F
 DIIS: error= 6.05D-06 at cycle  13 NSaved=  13.
 NSaved=13 IEnMin=13 EnMin= -455.423863006832     IErMin=13 ErrMin= 6.05D-06
 ErrMax= 6.05D-06  0.00D+00 EMaxC= 1.00D-01 BMatC= 5.05D-08 BMatP= 3.72D-07
 IDIUse=1 WtCom= 1.00D+00 WtEn= 0.00D+00
 Coeff-Com:  0.363D-05 0.186D-05 0.219D-03-0.116D-03 0.712D-03 0.448D-03
 Coeff-Com:  0.710D-03 0.192D-04 0.130D-02 0.131D-01 0.668D-01 0.216D+00
 Coeff-Com:  0.701D+00
 Coeff:      0.363D-05 0.186D-05 0.219D-03-0.116D-03 0.712D-03 0.448D-03
 Coeff:      0.710D-03 0.192D-04 0.130D-02 0.131D-01 0.668D-01 0.216D+00
 Coeff:      0.701D+00
 Gap=     0.118 Goal=   None    Shift=    0.000
 Gap=     0.118 Goal=   None    Shift=    0.000
 RMSDP=1.85D-06 MaxDP=1.10D-04 DE=-9.30D-08 OVMax= 5.34D-05

 Cycle  14  Pass 1  IDiag  1:
 RMSU=  6.35D-07    CP:  6.63D-01  2.21D+00  7.14D-01  5.26D-01  7.14D-01
                    CP:  7.05D-01  1.02D+00  1.21D+00  9.15D-01  7.51D-01
                    CP:  7.72D-01  8.96D-01  9.47D-01
 E= -455.423863022082     Delta-E=       -0.000000015250 Rises=F Damp=F
 DIIS: error= 1.07D-06 at cycle  14 NSaved=  14.
 NSaved=14 IEnMin=14 EnMin= -455.423863022082     IErMin=14 ErrMin= 1.07D-06
 ErrMax= 1.07D-06  0.00D+00 EMaxC= 1.00D-01 BMatC= 2.98D-09 BMatP= 5.05D-08
 IDIUse=1 WtCom= 1.00D+00 WtEn= 0.00D+00
 Coeff-Com: -0.139D-04 0.791D-05 0.528D-04-0.336D-04 0.168D-03-0.201D-04
 Coeff-Com:  0.674D-03 0.763D-03-0.279D-02-0.803D-02-0.102D-01 0.375D-01
 Coeff-Com:  0.312D+00 0.670D+00
 Coeff:     -0.139D-04 0.791D-05 0.528D-04-0.336D-04 0.168D-03-0.201D-04
 Coeff:      0.674D-03 0.763D-03-0.279D-02-0.803D-02-0.102D-01 0.375D-01
 Coeff:      0.312D+00 0.670D+00
 Gap=     0.118 Goal=   None    Shift=    0.000
 Gap=     0.118 Goal=   None    Shift=    0.000
 RMSDP=4.48D-07 MaxDP=1.93D-05 DE=-1.52D-08 OVMax= 1.07D-05

 Cycle  15  Pass 1  IDiag  1:
 RMSU=  2.21D-07    CP:  6.63D-01  2.21D+00  7.14D-01  5.26D-01  7.14D-01
                    CP:  7.05D-01  1.02D+00  1.21D+00  9.15D-01  7.50D-01
                    CP:  7.76D-01  9.11D-01  9.74D-01  7.96D-01
 E= -455.423863022876     Delta-E=       -0.000000000794 Rises=F Damp=F
 DIIS: error= 3.51D-07 at cycle  15 NSaved=  15.
 NSaved=15 IEnMin=15 EnMin= -455.423863022876     IErMin=15 ErrMin= 3.51D-07
 ErrMax= 3.51D-07  0.00D+00 EMaxC= 1.00D-01 BMatC= 2.54D-10 BMatP= 2.98D-09
 IDIUse=1 WtCom= 1.00D+00 WtEn= 0.00D+00
 Coeff-Com: -0.116D-05-0.182D-05-0.777D-05-0.763D-06-0.412D-04-0.125D-03
 Coeff-Com:  0.143D-03 0.491D-03-0.141D-02-0.556D-02-0.141D-01-0.166D-01
 Coeff-Com:  0.483D-01 0.346D+00 0.643D+00
 Coeff:     -0.116D-05-0.182D-05-0.777D-05-0.763D-06-0.412D-04-0.125D-03
 Coeff:      0.143D-03 0.491D-03-0.141D-02-0.556D-02-0.141D-01-0.166D-01
 Coeff:      0.483D-01 0.346D+00 0.643D+00
 Gap=     0.118 Goal=   None    Shift=    0.000
 Gap=     0.118 Goal=   None    Shift=    0.000
 RMSDP=1.44D-07 MaxDP=8.86D-06 DE=-7.94D-10 OVMax= 1.90D-06

 Cycle  16  Pass 1  IDiag  1:
 RMSU=  8.25D-08    CP:  6.63D-01  2.21D+00  7.14D-01  5.26D-01  7.14D-01
                    CP:  7.05D-01  1.02D+00  1.21D+00  9.15D-01  7.50D-01
                    CP:  7.77D-01  9.16D-01  9.98D-01  8.55D-01  7.80D-01
 E= -455.423863022939     Delta-E=       -0.000000000063 Rises=F Damp=F
 DIIS: error= 4.30D-08 at cycle  16 NSaved=  16.
 NSaved=16 IEnMin=16 EnMin= -455.423863022939     IErMin=16 ErrMin= 4.30D-08
 ErrMax= 4.30D-08  0.00D+00 EMaxC= 1.00D-01 BMatC= 4.84D-12 BMatP= 2.54D-10
 IDIUse=1 WtCom= 1.00D+00 WtEn= 0.00D+00
 Coeff-Com:  0.511D-07-0.316D-06-0.426D-05 0.818D-06-0.141D-04-0.302D-04
 Coeff-Com:  0.149D-04 0.119D-03-0.241D-03-0.101D-02-0.277D-02-0.562D-02
 Coeff-Com: -0.849D-03 0.675D-01 0.166D+00 0.777D+00
 Coeff:      0.511D-07-0.316D-06-0.426D-05 0.818D-06-0.141D-04-0.302D-04
 Coeff:      0.149D-04 0.119D-03-0.241D-03-0.101D-02-0.277D-02-0.562D-02
 Coeff:     -0.849D-03 0.675D-01 0.166D+00 0.777D+00
 Gap=     0.118 Goal=   None    Shift=    0.000
 Gap=     0.118 Goal=   None    Shift=    0.000
 RMSDP=2.57D-08 MaxDP=1.18D-06 DE=-6.30D-11 OVMax= 6.89D-07

 Cycle  17  Pass 1  IDiag  1:
 RMSU=  1.62D-08    CP:  6.63D-01  2.21D+00  7.14D-01  5.26D-01  7.14D-01
                    CP:  7.05D-01  1.02D+00  1.21D+00  9.15D-01  7.50D-01
                    CP:  7.77D-01  9.16D-01  9.98D-01  8.49D-01  8.22D-01
                    CP:  8.93D-01
 E= -455.423863022933     Delta-E=        0.000000000006 Rises=F Damp=F
 DIIS: error= 3.53D-08 at cycle  17 NSaved=  17.
 NSaved=17 IEnMin=16 EnMin= -455.423863022939     IErMin=17 ErrMin= 3.53D-08
 ErrMax= 3.53D-08  0.00D+00 EMaxC= 1.00D-01 BMatC= 2.15D-12 BMatP= 4.84D-12
 IDIUse=1 WtCom= 1.00D+00 WtEn= 0.00D+00
 Coeff-Com: -0.224D-07-0.248D-07-0.174D-05 0.656D-06-0.255D-05-0.225D-05
 Coeff-Com: -0.352D-06 0.128D-04-0.169D-04-0.468D-04-0.197D-03-0.143D-02
 Coeff-Com: -0.600D-02 0.196D-02 0.221D-01 0.440D+00 0.543D+00
 Coeff:     -0.224D-07-0.248D-07-0.174D-05 0.656D-06-0.255D-05-0.225D-05
 Coeff:     -0.352D-06 0.128D-04-0.169D-04-0.468D-04-0.197D-03-0.143D-02
 Coeff:     -0.600D-02 0.196D-02 0.221D-01 0.440D+00 0.543D+00
 Gap=     0.118 Goal=   None    Shift=    0.000
 Gap=     0.118 Goal=   None    Shift=    0.000
 RMSDP=1.13D-08 MaxDP=5.83D-07 DE= 5.57D-12 OVMax= 1.93D-07

 Cycle  18  Pass 1  IDiag  1:
 RMSU=  5.52D-09    CP:  6.63D-01  2.21D+00  7.14D-01  5.26D-01  7.14D-01
                    CP:  7.05D-01  1.02D+00  1.21D+00  9.15D-01  7.50D-01
                    CP:  7.77D-01  9.16D-01  9.99D-01  8.57D-01  8.04D-01
                    CP:  9.26D-01  6.98D-01
 E= -455.423863022954     Delta-E=       -0.000000000021 Rises=F Damp=F
 DIIS: error= 8.68D-09 at cycle  18 NSaved=  18.
 NSaved=18 IEnMin=18 EnMin= -455.423863022954     IErMin=18 ErrMin= 8.68D-09
 ErrMax= 8.68D-09  0.00D+00 EMaxC= 1.00D-01 BMatC= 1.11D-13 BMatP= 2.15D-12
 IDIUse=1 WtCom= 1.00D+00 WtEn= 0.00D+00
 Coeff-Com:  0.909D-07-0.526D-07-0.448D-06 0.193D-06-0.539D-07 0.140D-05
 Coeff-Com: -0.229D-05-0.524D-05 0.185D-04 0.960D-04 0.230D-03 0.118D-03
 Coeff-Com: -0.252D-02-0.582D-02-0.887D-02 0.995D-01 0.178D+00 0.740D+00
 Coeff:      0.909D-07-0.526D-07-0.448D-06 0.193D-06-0.539D-07 0.140D-05
 Coeff:     -0.229D-05-0.524D-05 0.185D-04 0.960D-04 0.230D-03 0.118D-03
 Coeff:     -0.252D-02-0.582D-02-0.887D-02 0.995D-01 0.178D+00 0.740D+00
 Gap=     0.118 Goal=   None    Shift=    0.000
 Gap=     0.118 Goal=   None    Shift=    0.000
 RMSDP=2.61D-09 MaxDP=1.75D-07 DE=-2.10D-11 OVMax= 7.14D-08

 SCF Done:  E(UB3LYP) =  -455.423863023     A.U. after   18 cycles
            NFock= 18  Conv=0.26D-08     -V/T= 2.0064
 <Sx>= 0.0000 <Sy>= 0.0000 <Sz>= 0.0000 <S**2>=-0.0000 S=-0.0000
 <L.S>= 0.000000000000E+00
 KE= 4.525166923263D+02 PE=-1.994594015197D+03 EE= 6.126620283238D+02
 Annihilation of the first spin contaminant:
 S**2 before annihilation    -0.0000,   after     0.0000
 Leave Link  502 at Sun Aug  9 00:01:39 2020, MaxMem=   524288000 cpu:            1897.2 elap:             272.1
 (Enter /home/ubuntu/g16/l601.exe)
 Copying SCF densities to generalized density rwf, IOpCl= 1 IROHF=0.

 **********************************************************************

            Population analysis using the SCF density.

 **********************************************************************

 Orbital symmetries:
 Alpha Orbitals:
       Occupied  (A) (A) (A) (A) (A) (A) (A) (A) (A) (A) (A) (A)
                 (A) (A) (A) (A) (A) (A) (A) (A) (A) (A) (A) (A)
                 (A) (A) (A) (A) (A) (A) (A) (A) (A) (A) (A)
       Virtual   (A) (A) (A) (A) (A) (A) (A) (A) (A) (A) (A) (A)
                 (A) (A) (A) (A) (A) (A) (A) (A) (A) (A) (A) (A)
                 (A) (A) (A) (A) (A) (A) (A) (A) (A) (A) (A) (A)
                 (A) (A) (A) (A) (A) (A) (A) (A) (A) (A) (A) (A)
                 (A) (A) (A) (A) (A) (A) (A) (A) (A) (A) (A) (A)
                 (A) (A) (A) (A) (A) (A) (A) (A) (A) (A) (A) (A)
                 (A) (A) (A) (A) (A) (A) (A) (A) (A) (A) (A) (A)
                 (A) (A) (A) (A) (A) (A) (A) (A) (A) (A) (A) (A)
                 (A) (A) (A) (A) (A) (A) (A) (A) (A) (A) (A) (A)
                 (A) (A) (A) (A) (A) (A) (A) (A) (A) (A) (A) (A)
                 (A) (A) (A) (A) (A) (A) (A) (A) (A) (A) (A) (A)
                 (A) (A) (A) (A) (A) (A) (A) (A) (A) (A) (A) (A)
                 (A) (A) (A) (A) (A) (A) (A) (A) (A) (A) (A) (A)
                 (A) (A) (A) (A) (A) (A) (A) (A) (A) (A) (A) (A)
                 (A) (A) (A) (A) (A) (A) (A) (A) (A) (A) (A) (A)
                 (A) (A) (A) (A) (A) (A) (A) (A) (A) (A) (A) (A)
                 (A) (A) (A) (A) (A) (A) (A) (A) (A) (A) (A) (A)
                 (A) (A) (A) (A) (A) (A) (A) (A) (A) (A) (A) (A)
                 (A) (A) (A) (A) (A) (A) (A) (A) (A) (A) (A) (A)
                 (A) (A) (A) (A) (A) (A) (A) (A) (A) (A) (A) (A)
                 (A) (A) (A) (A) (A) (A) (A) (A) (A) (A) (A) (A)
                 (A) (A) (A) (A) (A) (A)
 Beta  Orbitals:
       Occupied  (A) (A) (A) (A) (A) (A) (A) (A) (A) (A) (A) (A)
                 (A) (A) (A) (A) (A) (A) (A) (A) (A) (A) (A) (A)
                 (A) (A) (A) (A) (A) (A) (A) (A) (A) (A) (A)
       Virtual   (A) (A) (A) (A) (A) (A) (A) (A) (A) (A) (A) (A)
                 (A) (A) (A) (A) (A) (A) (A) (A) (A) (A) (A) (A)
                 (A) (A) (A) (A) (A) (A) (A) (A) (A) (A) (A) (A)
                 (A) (A) (A) (A) (A) (A) (A) (A) (A) (A) (A) (A)
                 (A) (A) (A) (A) (A) (A) (A) (A) (A) (A) (A) (A)
                 (A) (A) (A) (A) (A) (A) (A) (A) (A) (A) (A) (A)
                 (A) (A) (A) (A) (A) (A) (A) (A) (A) (A) (A) (A)
                 (A) (A) (A) (A) (A) (A) (A) (A) (A) (A) (A) (A)
                 (A) (A) (A) (A) (A) (A) (A) (A) (A) (A) (A) (A)
                 (A) (A) (A) (A) (A) (A) (A) (A) (A) (A) (A) (A)
                 (A) (A) (A) (A) (A) (A) (A) (A) (A) (A) (A) (A)
                 (A) (A) (A) (A) (A) (A) (A) (A) (A) (A) (A) (A)
                 (A) (A) (A) (A) (A) (A) (A) (A) (A) (A) (A) (A)
                 (A) (A) (A) (A) (A) (A) (A) (A) (A) (A) (A) (A)
                 (A) (A) (A) (A) (A) (A) (A) (A) (A) (A) (A) (A)
                 (A) (A) (A) (A) (A) (A) (A) (A) (A) (A) (A) (A)
                 (A) (A) (A) (A) (A) (A) (A) (A) (A) (A) (A) (A)
                 (A) (A) (A) (A) (A) (A) (A) (A) (A) (A) (A) (A)
                 (A) (A) (A) (A) (A) (A) (A) (A) (A) (A) (A) (A)
                 (A) (A) (A) (A) (A) (A) (A) (A) (A) (A) (A) (A)
                 (A) (A) (A) (A) (A) (A) (A) (A) (A) (A) (A) (A)
                 (A) (A) (A) (A) (A) (A)
 The electronic state is 1-A.
     Natural Orbital Coefficients:
                           1         2         3         4         5
     Eigenvalues --     2.00000   2.00000   2.00000   2.00000   2.00000
   1 1   C  1S          0.12048  -0.09376  -0.04422  -0.08933   0.00850
   2        2S         -0.24629   0.09114   0.09452   0.11987  -0.02503
   3        3S         -0.46501   0.17102   0.11419   0.36005   0.03202
   4        4S          1.60247   0.25223   0.29187   0.47704   0.12853
   5        5PX         0.11058   0.07734   0.10189   0.04221   0.01663
   6        5PY        -0.13066   0.02379   0.04779  -0.11028  -0.01665
   7        5PZ         0.00275  -0.18364   0.10190   0.05643   0.03212
   8        6PX        -0.07959  -0.09589  -0.08826  -0.10809  -0.10061
   9        6PY         0.38181  -0.15898  -0.10756  -0.23610  -0.15119
  10        6PZ         0.00399  -0.07904   0.04202   0.02930   0.01712
  11        7PX        -0.06484   0.06171   0.06354   0.05518   0.05540
  12        7PY        -0.49111  -0.03188  -0.03115  -0.17044   0.04224
  13        7PZ         0.00045  -0.00881   0.00472   0.00337   0.00125
  14        8D 0        0.00292  -0.00414  -0.00399  -0.00602   0.00102
  15        8D+1        0.00071  -0.00789   0.00461   0.00254   0.00223
  16        8D-1        0.00176   0.00787  -0.00478  -0.00040  -0.00021
  17        8D+2       -0.01114   0.00541   0.00863  -0.00913  -0.00547
  18        8D-2        0.01180   0.00253  -0.00011   0.00957   0.00639
  19        9D 0       -0.00665   0.00321   0.00327   0.00468   0.00035
  20        9D+1        0.00117   0.00715  -0.00360   0.00011  -0.00107
  21        9D-1        0.00021   0.00161  -0.00101  -0.00034   0.00001
  22        9D+2        0.16546  -0.05716  -0.04480  -0.05212  -0.04496
  23        9D-2       -0.08607  -0.01055  -0.01593   0.00719  -0.04329
  24 2   C  1S          0.04607  -0.09392  -0.03180   0.08400   0.05544
  25        2S          0.11392   0.15107   0.18520   0.09213   0.00522
  26        3S          0.16852   0.28017   0.27807   0.22922  -0.15172
  27        4S         -1.63315  -0.36592  -0.27564  -0.89454   0.04938
  28        5PX         0.10821  -0.02549  -0.01692  -0.05571  -0.03266
  29        5PY         0.21445  -0.04020  -0.06711   0.07038   0.12406
  30        5PZ         0.01421  -0.15754   0.09122   0.05187   0.04372
  31        6PX         0.18074  -0.03272  -0.05123   0.06197  -0.30713
  32        6PY        -0.21584  -0.08698  -0.07291  -0.12496   0.02049
  33        6PZ         0.00830  -0.07641   0.04273   0.02551   0.02717
  34        7PX        -0.45003  -0.02339  -0.01030  -0.18688   0.07616
  35        7PY         0.24770   0.05687   0.03555   0.16029  -0.02182
  36        7PZ         0.00152   0.00743  -0.00529  -0.00058   0.00335
  37        8D 0        0.00115  -0.00546  -0.00746  -0.00103  -0.00111
  38        8D+1        0.00003   0.00330  -0.00125  -0.00173   0.00028
  39        8D-1       -0.00013   0.00935  -0.00571  -0.00221  -0.00227
  40        8D+2       -0.02363   0.00107   0.00585  -0.01044   0.00032
  41        8D-2       -0.00065   0.00035  -0.00213   0.01354   0.00402
  42        9D 0        0.00342   0.00022   0.00054   0.00283   0.00523
  43        9D+1        0.00020   0.00830  -0.00504  -0.00215   0.00223
  44        9D-1        0.00002   0.00156  -0.00088  -0.00000  -0.00232
  45        9D+2        0.10451   0.03874   0.03256   0.06735  -0.00684
  46        9D-2       -0.08641  -0.00704  -0.00937  -0.02872   0.03448
  47 3   C  1S         -0.03201   0.00043   0.02453  -0.06478   0.04496
  48        2S          0.02459  -0.02603  -0.04677   0.06343  -0.05715
  49        3S          0.24681  -0.18036  -0.26988   0.09046   0.09927
  50        4S         -1.04745  -0.42703  -0.50037  -0.78275  -0.19409
  51        5PX         0.06026   0.06341   0.12842  -0.03562  -0.04052
  52        5PY        -0.03124   0.05149   0.03526   0.17974   0.07297
  53        5PZ        -0.03111  -0.20638   0.12387   0.02243   0.01774
  54        6PX        -0.09201   0.02109  -0.03188   0.20066   0.16733
  55        6PY         0.56276  -0.13771  -0.04496  -0.26772  -0.23121
  56        6PZ        -0.01421  -0.08730   0.05254   0.01012   0.00754
  57        7PX         0.19244  -0.06202  -0.08897  -0.01715  -0.14202
  58        7PY        -0.77779   0.00316  -0.04416  -0.02176   0.00496
  59        7PZ        -0.00053  -0.00032   0.00003   0.00027  -0.00381
  60        8D 0        0.00379   0.00229   0.00377   0.00024   0.00355
  61        8D+1       -0.00060  -0.00659   0.00541   0.00157   0.00067
  62        8D-1        0.00175  -0.00483   0.00223   0.00412   0.00134
  63        8D+2        0.00664  -0.00438  -0.00467  -0.00469   0.00499
  64        8D-2       -0.00008  -0.00045  -0.00577   0.00758   0.00730
  65        9D 0        0.01941  -0.00464  -0.00741   0.00785   0.00824
  66        9D+1       -0.00271  -0.01653   0.00937  -0.00077   0.00311
  67        9D-1       -0.00055  -0.01374   0.00788   0.00293  -0.00117
  68        9D+2       -0.12288   0.07198   0.05061   0.11573   0.02957
  69        9D-2        0.02968   0.04176   0.06911  -0.01342  -0.09791
  70 4   C  1S          0.02368  -0.01719  -0.07172   0.05872  -0.06683
  71        2S         -0.05017   0.06474   0.15566  -0.22267   0.05419
  72        3S         -0.15599   0.04086   0.13513  -0.38425   0.02152
  73        4S          0.91406   0.32308   0.09120   1.04980  -0.47175
  74        5PX        -0.05861  -0.07699  -0.03955  -0.11756   0.16875
  75        5PY         0.00211  -0.00387   0.02191   0.01685   0.02341
  76        5PZ         0.00478  -0.12594   0.08298   0.02280   0.04510
  77        6PX         0.28898   0.04777   0.00172   0.18868  -0.13199
  78        6PY        -0.22381  -0.05634  -0.11472   0.12746   0.11726
  79        6PZ         0.00341  -0.06345   0.04257   0.01299   0.01758
  80        7PX        -0.53009  -0.08498  -0.08668  -0.19399   0.03742
  81        7PY         0.56332   0.01346   0.03608   0.10015  -0.02735
  82        7PZ        -0.00063  -0.01743   0.01191   0.00329  -0.00395
  83        8D 0       -0.00187  -0.00412  -0.00703   0.00314  -0.00137
  84        8D+1       -0.00044   0.00835  -0.00498  -0.00234  -0.00215
  85        8D-1        0.00113   0.00173  -0.00172   0.00158  -0.00093
  86        8D+2       -0.01314   0.00172   0.00293   0.00082   0.00174
  87        8D-2       -0.00931  -0.00358  -0.00143  -0.00613   0.00976
  88        9D 0       -0.00305  -0.00072  -0.00214  -0.00237  -0.01401
  89        9D+1       -0.00047   0.00409  -0.00275  -0.00256   0.00343
  90        9D-1       -0.00007  -0.00622   0.00399   0.00137  -0.00149
  91        9D+2       -0.06339  -0.00389  -0.04493   0.09517  -0.04111
  92        9D-2        0.06615   0.01714  -0.01040   0.08883  -0.16036
  93 5   C  1S         -0.08334   0.01688  -0.03910   0.04501   0.07430
  94        2S          0.10496  -0.00854   0.05778  -0.12482  -0.09715
  95        3S          0.29960  -0.00942   0.08461  -0.08551  -0.15102
  96        4S          0.11433   0.41270   0.35685   0.75575   0.16107
  97        5PX        -0.01034   0.03867   0.06019   0.04912   0.11046
  98        5PY        -0.01861   0.06658   0.09430   0.05982   0.07506
  99        5PZ        -0.03290  -0.14523   0.10228  -0.00533   0.01551
 100        6PX        -0.16520  -0.02638  -0.13894   0.24390   0.32804
 101        6PY         0.08180  -0.08524  -0.05778  -0.13538  -0.12026
 102        6PZ        -0.01678  -0.05389   0.04100  -0.00692   0.00673
 103        7PX         0.50757  -0.00878   0.01984   0.02146   0.09704
 104        7PY         0.05553   0.07014   0.05832   0.13174  -0.03185
 105        7PZ        -0.00233  -0.00879   0.00645  -0.00078   0.00047
 106        8D 0       -0.00427  -0.00039  -0.00189   0.00295   0.00210
 107        8D+1        0.00065   0.00287  -0.00123  -0.00094   0.00095
 108        8D-1       -0.00138  -0.00995   0.00637   0.00069   0.00162
 109        8D+2        0.00183  -0.00044   0.00096  -0.00166  -0.00156
 110        8D-2       -0.00161   0.00239   0.00421  -0.00484   0.00661
 111        9D 0       -0.00018   0.00217   0.00638  -0.00562  -0.00511
 112        9D+1        0.00160   0.01600  -0.01064  -0.00299   0.00569
 113        9D-1        0.00135   0.00956  -0.00564   0.00022  -0.00092
 114        9D+2        0.05875  -0.01260  -0.02093  -0.01333  -0.01951
 115        9D-2       -0.07182  -0.00612  -0.04410   0.08885   0.06597
 116 6   C  1S         -0.05234  -0.01090  -0.00691  -0.04942  -0.50398
 117        2S          0.03099   0.05174   0.12661  -0.12525  -0.05602
 118        3S         -0.06624   0.05127   0.10935  -0.03338  -0.16318
 119        4S         -0.22678  -0.29040  -0.11206  -0.70581   0.17765
 120        5PX        -0.01909  -0.04209  -0.05813  -0.04211  -0.11901
 121        5PY        -0.02506   0.02461   0.01069  -0.05163   0.03002
 122        5PZ        -0.01458  -0.10863   0.07646  -0.00602   0.04342
 123        6PX        -0.07058  -0.03896  -0.10092   0.12658  -0.01312
 124        6PY        -0.07028  -0.03512  -0.13063   0.19863   0.11626
 125        6PZ        -0.00870  -0.06837   0.04869  -0.00105   0.01240
 126        7PX         0.32770   0.08158   0.06286   0.19635  -0.11376
 127        7PY         0.35879  -0.01598   0.03602  -0.05913   0.18645
 128        7PZ         0.00110   0.01934  -0.01175  -0.00402   0.00445
 129        8D 0        0.00013  -0.00145  -0.00586   0.00853   0.00704
 130        8D+1        0.00183   0.00918  -0.00687  -0.00042   0.00111
 131        8D-1        0.00080  -0.00543   0.00384   0.00193   0.00054
 132        8D+2        0.00650  -0.00198  -0.00179   0.01314  -0.01375
 133        8D-2        0.00028  -0.00227   0.00156  -0.00578   0.01652
 134        9D 0        0.00226  -0.00181  -0.00672   0.01281   0.00235
 135        9D+1        0.00174   0.01868  -0.01267  -0.00179   0.00002
 136        9D-1       -0.00016  -0.00183   0.00129  -0.00128   0.00606
 137        9D+2        0.05559   0.01388   0.03865  -0.09600  -0.02002
 138        9D-2       -0.05877  -0.01230  -0.01059  -0.00587  -0.10018
 139 7   N  1S          0.00967   0.03208   0.00364   0.07150  -0.06559
 140        2S          0.04127  -0.06516  -0.08919  -0.00595   0.02223
 141        3S          0.02315  -0.15933  -0.22623  -0.09777   0.09737
 142        4S          0.10325   0.00082  -0.03404   0.09229   0.02967
 143        5PX        -0.05929  -0.06413  -0.13242   0.00009  -0.01563
 144        5PY        -0.05238  -0.03978  -0.06358  -0.01654  -0.02320
 145        5PZ        -0.00949   0.03654  -0.03855  -0.04397   0.00304
 146        6PX         0.06958  -0.00557  -0.00042   0.04997   0.01097
 147        6PY         0.03708  -0.01024   0.00081  -0.00075  -0.01420
 148        6PZ        -0.00626   0.01474  -0.01790  -0.02292   0.00045
 149        7PX         0.09167   0.05274   0.10525   0.03599   0.08338
 150        7PY         0.08872   0.02176   0.05226  -0.00397   0.01074
 151        7PZ        -0.00089  -0.00074  -0.00032  -0.00141   0.00158
 152        8D 0       -0.00177   0.00104   0.00127  -0.00199   0.00211
 153        8D+1       -0.00160  -0.01311   0.00867   0.00334   0.00029
 154        8D-1       -0.00064  -0.00631   0.00408   0.00177   0.00022
 155        8D+2        0.00116  -0.00118   0.00045  -0.00379  -0.00531
 156        8D-2        0.00330   0.00005  -0.00142   0.00849   0.00092
 157        9D 0        0.00983  -0.00612  -0.00509  -0.00454   0.00819
 158        9D+1       -0.00377  -0.02672   0.01624   0.00318   0.00258
 159        9D-1       -0.00155  -0.01298   0.00769   0.00189   0.00139
 160        9D+2        0.00849  -0.00183   0.00165  -0.01900  -0.01855
 161        9D-2       -0.02779   0.00752   0.00171   0.01834   0.00134
 162 8   N  1S         -0.00037  -0.03648  -0.05823  -0.06279   0.07610
 163        2S          0.01699   0.07496   0.10473   0.12082  -0.08926
 164        3S          0.08339   0.10583   0.16060   0.19518  -0.12062
 165        4S          0.10111   0.08092   0.15785   0.04698   0.03625
 166        5PX         0.08739  -0.01819   0.00103  -0.03888   0.09378
 167        5PY         0.01691  -0.01844   0.00756  -0.07790   0.00425
 168        5PZ         0.00935   0.11934  -0.08515  -0.04782   0.00159
 169        6PX         0.08480   0.00575   0.02940   0.00692   0.02792
 170        6PY        -0.00054   0.00390   0.01844  -0.00639   0.00571
 171        6PZ         0.00481   0.04892  -0.03514  -0.02078   0.00305
 172        7PX         0.00827   0.00818   0.01617   0.00246  -0.00014
 173        7PY         0.00603   0.00426   0.00769   0.00374   0.00301
 174        7PZ         0.00149   0.00669  -0.00391  -0.00093   0.00003
 175        8D 0       -0.00332   0.00076  -0.00034   0.00164  -0.00248
 176        8D+1       -0.00018   0.00529  -0.00438  -0.00354   0.00021
 177        8D-1       -0.00008   0.00248  -0.00206  -0.00166   0.00009
 178        8D+2        0.00554  -0.00033   0.00031  -0.00031   0.00445
 179        8D-2        0.00312  -0.00138   0.00062  -0.00375   0.00264
 180        9D 0       -0.00470  -0.00220  -0.00419  -0.00384   0.00069
 181        9D+1       -0.00062  -0.00421   0.00233  -0.00010   0.00086
 182        9D-1       -0.00025  -0.00191   0.00102  -0.00002   0.00046
 183        9D+2        0.01287   0.00131   0.00444  -0.00024  -0.00431
 184        9D-2       -0.00025   0.00452   0.00589   0.01044   0.00088
 185 9   H  1S          0.26409   0.05166   0.04206   0.11576   0.09933
 186        2S          0.58364   0.09512   0.04205   0.29853   0.06681
 187        3S         -0.05441  -0.02134  -0.02112  -0.03509   0.00546
 188        4PX         0.00098  -0.00090  -0.00050  -0.00248  -0.00128
 189        4PY        -0.01251  -0.00620  -0.00716  -0.00543  -0.00486
 190        4PZ         0.00053  -0.00530   0.00307   0.00181   0.00146
 191        5PX        -0.00880   0.00184   0.00359   0.00013   0.00260
 192        5PY        -0.13059  -0.01689  -0.00275  -0.06703  -0.01193
 193        5PZ         0.00048  -0.00149   0.00081   0.00087   0.00094
 194 10  H  1S         -0.08903  -0.01777   0.07257  -0.20288   0.17871
 195        2S         -0.24043  -0.07632   0.09580  -0.47010   0.42851
 196        3S          0.01642   0.02070   0.02362   0.02625   0.00402
 197        4PX         0.00347  -0.00135  -0.00713   0.01290  -0.00603
 198        4PY         0.00137   0.00047  -0.00229   0.00783  -0.00455
 199        4PZ         0.00019  -0.00367   0.00242   0.00063   0.00169
 200        5PX         0.06633   0.01630  -0.01182   0.07690  -0.07956
 201        5PY         0.00449   0.00784  -0.01730   0.06344  -0.05172
 202        5PZ         0.00051   0.00070  -0.00025   0.00065  -0.00021
 203 11  H  1S          0.08019  -0.05813  -0.04785  -0.11320  -0.12098
 204        2S          0.14565  -0.14046  -0.15862  -0.19279  -0.15308
 205        3S         -0.00008   0.01763   0.01575   0.02749   0.00365
 206        4PX        -0.00013   0.00057   0.00132  -0.00067   0.00333
 207        4PY         0.00606  -0.00321  -0.00043  -0.00928  -0.00947
 208        4PZ        -0.00114  -0.00468   0.00335  -0.00026   0.00042
 209        5PX        -0.00869  -0.00568  -0.01294   0.00769   0.00254
 210        5PY         0.02851  -0.03496  -0.04225  -0.04206  -0.02859
 211        5PZ         0.00029   0.00582  -0.00327  -0.00074  -0.00062
 212 12  H  1S         -0.28614   0.01438   0.01274  -0.01928  -0.04726
 213        2S         -0.59696  -0.02585  -0.04818  -0.06481  -0.09785
 214        3S          0.06240   0.01513   0.02031   0.02105   0.00070
 215        4PX        -0.01559   0.00349   0.00368   0.00160  -0.00142
 216        4PY         0.00900  -0.00034   0.00048  -0.00294   0.00128
 217        4PZ         0.00016  -0.00620   0.00341   0.00200   0.00103
 218        5PX        -0.09154  -0.01595  -0.01972  -0.02049  -0.02356
 219        5PY         0.09183  -0.00244   0.00013   0.01320   0.00709
 220        5PZ         0.00080   0.00144  -0.00093   0.00097  -0.00045
 221 13  O  1S          0.03748   0.01119   0.00988  -0.02079   0.01232
 222        2S         -0.04950  -0.01379  -0.06915   0.04116  -0.01597
 223        3S         -0.07877  -0.02018  -0.09734   0.06300   0.00427
 224        4S         -0.06620   0.01023  -0.04171   0.05971   0.01236
 225        5PX        -0.01762  -0.00461  -0.05563   0.13163   0.01640
 226        5PY         0.03305  -0.00335   0.03290   0.03466  -0.22083
 227        5PZ         0.00401   0.05775  -0.04987  -0.02004   0.05398
 228        6PX        -0.00754  -0.00119  -0.02319   0.06012  -0.01319
 229        6PY         0.01976   0.00091   0.02031   0.03538  -0.12413
 230        6PZ         0.00312   0.04175  -0.03584  -0.01360   0.03717
 231        7PX        -0.00138  -0.01306  -0.01162   0.00047   0.02509
 232        7PY        -0.01384  -0.00279  -0.01160   0.01779  -0.04421
 233        7PZ         0.00101  -0.00549   0.00149   0.00253  -0.00030
 234        8D 0        0.00023   0.00034  -0.00009  -0.00017   0.00415
 235        8D+1        0.00034   0.00475  -0.00331  -0.00063   0.00047
 236        8D-1       -0.00003   0.00103  -0.00089  -0.00076   0.00207
 237        8D+2       -0.00028  -0.00023  -0.00114   0.00077   0.00313
 238        8D-2       -0.00161   0.00015  -0.00264   0.00740   0.00432
 239        9D 0       -0.00411  -0.00118  -0.00141   0.00140  -0.00276
 240        9D+1        0.00046   0.00961  -0.00666  -0.00166   0.00097
 241        9D-1       -0.00009   0.00561  -0.00409  -0.00241   0.00489
 242        9D+2        0.00182  -0.00128  -0.00186  -0.00564   0.00930
 243        9D-2       -0.00448  -0.00110  -0.00241   0.00101  -0.00275
 244 14  C  1S         -0.02313   0.04404   0.06336   0.06588  -0.13096
 245        2S         -0.03008  -0.00131  -0.02669   0.02841   0.02766
 246        3S          0.02700  -0.00419   0.00012  -0.01060   0.03559
 247        4S          0.08561   0.00585   0.02445  -0.02840   0.06899
 248        5PX         0.02637  -0.00353   0.02310  -0.11210   0.01089
 249        5PY        -0.06019   0.02516   0.02066   0.03087   0.14239
 250        5PZ         0.00441   0.20897  -0.14328  -0.05495   0.07734
 251        6PX         0.00023   0.00662   0.01165  -0.04099   0.01760
 252        6PY         0.02945  -0.00187   0.00136  -0.02971  -0.01360
 253        6PZ        -0.00002  -0.01375   0.00978   0.00481  -0.00838
 254        7PX        -0.03868   0.00174  -0.00856   0.02062  -0.02101
 255        7PY         0.05431   0.00265   0.01124  -0.00995  -0.00423
 256        7PZ        -0.00082  -0.01205   0.00883   0.00265  -0.00576
 257        8D 0       -0.00125   0.00148   0.00311  -0.00405   0.00856
 258        8D+1       -0.00024  -0.00125   0.00133   0.00041  -0.00176
 259        8D-1        0.00003   0.00786  -0.00509  -0.00215   0.00248
 260        8D+2       -0.00047  -0.00076  -0.00284   0.00920  -0.00973
 261        8D-2       -0.00519   0.00012  -0.00560   0.01128   0.00613
 262        9D 0        0.01982  -0.00201   0.00041  -0.01244  -0.02262
 263        9D+1       -0.00006   0.00907  -0.00624  -0.00280   0.00327
 264        9D-1       -0.00064  -0.03142   0.02162   0.00817  -0.01121
 265        9D+2        0.00704  -0.00240  -0.00320   0.00391  -0.00526
 266        9D-2        0.01307  -0.00100   0.00627  -0.02216  -0.00838
 267 15  H  1S         -0.03745   0.15228  -0.09944  -0.02721   0.14422
 268        2S         -0.07350   0.18186  -0.11606   0.02376   0.13890
 269        3S         -0.00513   0.00813  -0.01551  -0.00222   0.00828
 270        4PX         0.00128  -0.00293   0.00191  -0.00186  -0.00285
 271        4PY        -0.00001  -0.00509   0.00530   0.00156  -0.00071
 272        4PZ         0.00265  -0.00272   0.00234  -0.00071  -0.00634
 273        5PX         0.00006  -0.01754   0.00593  -0.00073  -0.00367
 274        5PY         0.01483  -0.01870   0.00983  -0.00260  -0.02322
 275        5PZ         0.01401  -0.03288   0.02346  -0.01052  -0.02227
 276 16  H  1S          0.04448  -0.02096  -0.01084  -0.07091  -0.08761
 277        2S          0.10471  -0.02409   0.00221  -0.10648  -0.17818
 278        3S          0.03835  -0.00131   0.00955  -0.02031   0.00388
 279        4PX        -0.00069   0.00094   0.00176  -0.00014   0.00350
 280        4PY        -0.00083  -0.00063  -0.00150  -0.00157   0.00055
 281        4PZ         0.00014   0.00649  -0.00445  -0.00170   0.00240
 282        5PX        -0.01660   0.00343   0.00265   0.01080   0.02770
 283        5PY         0.01466  -0.00429  -0.00059  -0.01892  -0.02947
 284        5PZ        -0.00005  -0.00725   0.00503   0.00201  -0.00244
 285 17  H  1S         -0.04247  -0.13284   0.09398   0.04868   0.04052
 286        2S         -0.07860  -0.15050   0.11029   0.11480   0.01139
 287        3S         -0.00626  -0.01549   0.00215   0.00373  -0.00567
 288        4PX         0.00138   0.00201  -0.00144  -0.00319  -0.00099
 289        4PY         0.00023   0.00626  -0.00251  -0.00138   0.00338
 290        4PZ        -0.00277  -0.00175   0.00077   0.00186   0.00466
 291        5PX         0.00046   0.01089  -0.01400  -0.00927   0.00931
 292        5PY         0.01557   0.01423  -0.01303  -0.01132  -0.01024
 293        5PZ        -0.01511  -0.02763   0.01831   0.02701  -0.00175
                           6         7         8         9        10
     Eigenvalues --     2.00000   2.00000   2.00000   2.00000   2.00000
   1 1   C  1S         -0.08758   0.03060   0.05048   0.16357   0.09043
   2        2S         -0.00659  -0.00917  -0.00300  -0.04687   0.01777
   3        3S          0.12965   0.01701  -0.05878  -0.20837  -0.00816
   4        4S          0.09630   0.06368  -0.13536   0.07039  -0.12875
   5        5PX        -0.01264  -0.00236  -0.04565   0.10162  -0.04583
   6        5PY        -0.02582  -0.02447  -0.00739   0.08725  -0.02595
   7        5PZ         0.03233   0.00342   0.00164  -0.04889   0.00580
   8        6PX        -0.03295  -0.04469   0.03889  -0.03768   0.15301
   9        6PY        -0.11668  -0.02961   0.02993   0.12076   0.08948
  10        6PZ         0.02085  -0.00830   0.01783  -0.03191  -0.00434
  11        7PX         0.01990   0.03381  -0.00926   0.01541  -0.02351
  12        7PY        -0.01557   0.00846   0.02820   0.04289   0.01081
  13        7PZ         0.00164  -0.00090   0.00140  -0.00406  -0.00133
  14        8D 0        0.00057   0.00124   0.00078  -0.00017  -0.00096
  15        8D+1        0.00229  -0.00083   0.00102  -0.00058  -0.00018
  16        8D-1        0.00063  -0.00302   0.00365  -0.00042  -0.00396
  17        8D+2       -0.00429  -0.00708  -0.00005   0.00383   0.00540
  18        8D-2        0.00417  -0.00248  -0.00448   0.00598  -0.00318
  19        9D 0       -0.00119   0.00247  -0.00134  -0.00484  -0.00225
  20        9D+1        0.00215  -0.01050   0.01476   0.00075  -0.00613
  21        9D-1       -0.00003   0.00046  -0.00053   0.00080   0.00021
  22        9D+2       -0.02611  -0.00747   0.01174   0.00856   0.04753
  23        9D-2       -0.01504   0.00914   0.00768   0.00253  -0.02340
  24 2   C  1S          0.12852   0.36779   0.14060   0.05837  -0.30055
  25        2S         -0.00129  -0.10247  -0.04746   0.10706   0.02295
  26        3S         -0.06707  -0.25926  -0.11136   0.09238   0.11032
  27        4S         -0.04316  -0.08161   0.16154  -0.19006   0.38548
  28        5PX        -0.01538  -0.07727   0.03101  -0.04168   0.10419
  29        5PY         0.09460   0.02876  -0.03362   0.02339  -0.07183
  30        5PZ         0.04550  -0.01671   0.02162  -0.01614  -0.00483
  31        6PX        -0.09531  -0.11934  -0.00314  -0.04083   0.18003
  32        6PY        -0.00445   0.10318   0.06614  -0.07737  -0.01038
  33        6PZ         0.02645  -0.00299   0.00623  -0.00877   0.00259
  34        7PX        -0.00389   0.04088   0.03128   0.04037  -0.01304
  35        7PY        -0.00191   0.04608  -0.01963   0.02472  -0.09542
  36        7PZ         0.00426  -0.00229   0.00616  -0.00030   0.00067
  37        8D 0       -0.00034   0.00247   0.00090  -0.00195  -0.00103
  38        8D+1        0.00006  -0.00069   0.00034   0.00435   0.00076
  39        8D-1       -0.00212   0.00042  -0.00049  -0.00053  -0.00106
  40        8D+2       -0.00217  -0.00576   0.00128   0.00356   0.00391
  41        8D-2        0.00396   0.00400  -0.00253  -0.00139  -0.00570
  42        9D 0        0.00477   0.00037  -0.00010   0.00910  -0.00448
  43        9D+1        0.00342  -0.00353   0.00786   0.00313   0.00200
  44        9D-1       -0.00236   0.00040  -0.00189  -0.00181  -0.00241
  45        9D+2        0.00253  -0.00889  -0.01355  -0.00251  -0.00525
  46        9D-2       -0.00071   0.03173   0.02267  -0.01591  -0.03569
  47 3   C  1S          0.08681   0.08082   0.05984  -0.05206   0.03972
  48        2S         -0.05190   0.04040   0.01479   0.03030  -0.00867
  49        3S          0.04524   0.03447  -0.00331  -0.01525   0.13519
  50        4S         -0.17411  -0.27435   0.02433   0.36111  -0.10867
  51        5PX        -0.01603   0.05628   0.01396  -0.06951  -0.00770
  52        5PY         0.07959   0.00623  -0.00920  -0.13690   0.01880
  53        5PZ        -0.00131   0.06373  -0.07968   0.00569   0.08138
  54        6PX         0.15013   0.04124   0.00761  -0.16919   0.17951
  55        6PY        -0.16223  -0.03853   0.04231   0.10450   0.10298
  56        6PZ         0.00256   0.01784  -0.01816  -0.00008   0.03286
  57        7PX        -0.06320  -0.02850  -0.00309   0.05993  -0.09513
  58        7PY        -0.02570   0.08632   0.05204  -0.00829  -0.06922
  59        7PZ        -0.00480   0.00367  -0.00741  -0.00444  -0.00257
  60        8D 0        0.00354  -0.00031  -0.00064  -0.00365  -0.00070
  61        8D+1        0.00357  -0.01083   0.01536   0.00364  -0.00211
  62        8D-1        0.00340  -0.00590   0.00879  -0.00537  -0.00507
  63        8D+2       -0.00299   0.00378  -0.00036   0.01752  -0.01008
  64        8D-2        0.00337  -0.00410  -0.00286   0.00716  -0.00127
  65        9D 0        0.01020   0.00147   0.00186  -0.00483   0.01293
  66        9D+1       -0.00339   0.01975  -0.02817   0.00298   0.01379
  67        9D-1       -0.00328   0.00774  -0.01304  -0.00191   0.00146
  68        9D+2        0.04166   0.02779  -0.02455  -0.06810  -0.06331
  69        9D-2       -0.07060   0.02260  -0.02050   0.09236  -0.15499
  70 4   C  1S         -0.03090  -0.25095  -0.30597  -0.19631  -0.30231
  71        2S         -0.02290  -0.07281  -0.00418   0.05652   0.02768
  72        3S         -0.04387  -0.01724   0.07957   0.11281   0.06673
  73        4S         -0.13090   0.33266  -0.00945  -0.11858  -0.41903
  74        5PX         0.07452   0.04022  -0.00392   0.04289  -0.07539
  75        5PY         0.01145  -0.13773   0.00565   0.02535   0.10028
  76        5PZ         0.04030  -0.01361   0.01293   0.04668   0.02473
  77        6PX        -0.02807  -0.04185  -0.05718  -0.02249   0.05430
  78        6PY         0.02381   0.20441   0.06005  -0.16744  -0.17803
  79        6PZ         0.01624  -0.00931   0.00601   0.02408   0.00525
  80        7PX        -0.01108   0.00645   0.03390  -0.06576   0.11994
  81        7PY         0.01585  -0.12425  -0.04862   0.01909   0.05402
  82        7PZ        -0.00589   0.00365  -0.01189   0.00043  -0.00337
  83        8D 0        0.00110   0.00192   0.00084  -0.00227   0.00050
  84        8D+1       -0.00209   0.00055  -0.00062   0.00013  -0.00034
  85        8D-1        0.00013  -0.00155   0.00237  -0.00365  -0.00351
  86        8D+2        0.00065  -0.00736  -0.00136   0.00391   0.00645
  87        8D-2        0.00351   0.00836  -0.00011  -0.00038  -0.00540
  88        9D 0       -0.01111  -0.00083   0.00211  -0.01353  -0.00024
  89        9D+1        0.00224   0.00294  -0.00172   0.00272   0.00583
  90        9D-1       -0.00274   0.00270  -0.00665  -0.00199  -0.00176
  91        9D+2       -0.02074   0.10065   0.02408  -0.09338  -0.05982
  92        9D-2       -0.05931  -0.03926   0.00725  -0.03298   0.03895
  93 5   C  1S         -0.02703  -0.15382  -0.11181   0.05772  -0.07375
  94        2S         -0.07845   0.04008   0.02549  -0.03274   0.01233
  95        3S         -0.09597   0.14268  -0.01796   0.10096  -0.18350
  96        4S          0.14202   0.31152  -0.02765  -0.09197  -0.44315
  97        5PX         0.06833   0.02729   0.00091  -0.07650  -0.04818
  98        5PY         0.02035   0.09821   0.00605   0.01028  -0.11753
  99        5PZ         0.00322   0.01774  -0.02441   0.07472   0.07869
 100        6PX         0.25712   0.07239  -0.03952  -0.18479   0.16011
 101        6PY        -0.07303  -0.03323   0.00376   0.09485  -0.02086
 102        6PZ         0.00572  -0.00532   0.01200   0.04536   0.03798
 103        7PX         0.05954  -0.09432  -0.06402   0.03188   0.03011
 104        7PY        -0.00025   0.07392   0.00997  -0.05433  -0.05375
 105        7PZ        -0.00048   0.00156  -0.00253   0.00579   0.00518
 106        8D 0        0.00239  -0.00317  -0.00102   0.00160   0.00146
 107        8D+1        0.00075  -0.00131   0.00102   0.00232  -0.00055
 108        8D-1        0.00065   0.00209  -0.00279   0.00221   0.00421
 109        8D+2       -0.00326   0.00119   0.00224   0.00448  -0.00694
 110        8D-2        0.00265   0.00276   0.00005  -0.00335  -0.00248
 111        9D 0       -0.00982  -0.00143  -0.00009   0.00149  -0.00485
 112        9D+1        0.00679  -0.00412   0.01081   0.00003   0.00224
 113        9D-1        0.00317  -0.01110   0.01747   0.00004  -0.00570
 114        9D+2        0.00877   0.01155  -0.00776  -0.03822   0.05378
 115        9D-2        0.05876   0.00433  -0.01528  -0.04054   0.04275
 116 6   C  1S          0.79706  -0.06501  -0.21730   0.10345   0.03387
 117        2S         -0.00226   0.09745   0.03981  -0.07377  -0.11587
 118        3S         -0.23413   0.25577   0.13776  -0.17649  -0.39826
 119        4S          0.03359  -0.40279  -0.01048   0.04111   0.66058
 120        5PX        -0.04737  -0.06357   0.02506   0.00907   0.02133
 121        5PY        -0.00535   0.03452  -0.04059   0.06819   0.00711
 122        5PZ         0.02341   0.02157  -0.03306   0.06329   0.06855
 123        6PX         0.05825   0.03153  -0.00919  -0.08991   0.05763
 124        6PY         0.06949   0.22300   0.00945  -0.19263  -0.10913
 125        6PZ         0.00007   0.01702  -0.03460   0.03335   0.02877
 126        7PX        -0.00312   0.02447  -0.01395   0.04878  -0.21561
 127        7PY         0.09202  -0.11506  -0.06574   0.07480   0.04559
 128        7PZ         0.00835  -0.01042   0.02139   0.00782   0.00280
 129        8D 0        0.00358  -0.00182  -0.00471   0.00422   0.00393
 130        8D+1        0.00050   0.00198  -0.00208  -0.00620  -0.00224
 131        8D-1        0.00154  -0.00344   0.00388   0.00299  -0.00172
 132        8D+2       -0.00579  -0.00232   0.00028  -0.00185   0.00113
 133        8D-2        0.00585   0.00293  -0.00587   0.00362   0.00648
 134        9D 0        0.01499   0.00254  -0.00516   0.00556  -0.00862
 135        9D+1        0.00257  -0.00425   0.01008  -0.00307  -0.00264
 136        9D-1        0.00503   0.00005   0.00205   0.00402   0.00595
 137        9D+2       -0.01476  -0.02133   0.00545   0.03016   0.04517
 138        9D-2       -0.06070  -0.02722   0.03169   0.00703  -0.04510
 139 7   N  1S         -0.00820  -0.07132  -0.14866  -0.02682  -0.19798
 140        2S          0.01255  -0.02430   0.02141   0.01417   0.16163
 141        3S          0.04420  -0.04610   0.02317   0.07663   0.12333
 142        4S         -0.00812   0.05978  -0.00837   0.04191  -0.14495
 143        5PX        -0.03786  -0.02594  -0.02040   0.10817  -0.11673
 144        5PY        -0.08202   0.00419  -0.02981   0.25999  -0.14606
 145        5PZ        -0.07422   0.25439  -0.36679   0.00216   0.11187
 146        6PX         0.02812  -0.01017   0.02979  -0.09415   0.17836
 147        6PY        -0.03305   0.00357   0.00029   0.09774   0.02337
 148        6PZ        -0.04132   0.13853  -0.19959  -0.00030   0.06121
 149        7PX         0.06278   0.00126   0.01321  -0.12997   0.19400
 150        7PY         0.01241   0.00339   0.00491  -0.03501   0.07572
 151        7PZ        -0.00069   0.00825  -0.01006   0.00103   0.00641
 152        8D 0        0.00169   0.00041  -0.00125  -0.00001  -0.00707
 153        8D+1        0.00327  -0.00932   0.01434  -0.00031  -0.00104
 154        8D-1        0.00165  -0.00438   0.00678  -0.00059  -0.00067
 155        8D+2       -0.00693   0.00119   0.00084   0.01161   0.00168
 156        8D-2        0.00222  -0.00098   0.00132  -0.00840   0.01046
 157        9D 0        0.00747  -0.00416   0.00375  -0.01093   0.02698
 158        9D+1        0.00073   0.00602  -0.00716   0.00144   0.00968
 159        9D-1        0.00043   0.00317  -0.00387  -0.00044   0.00419
 160        9D+2       -0.01711   0.00140  -0.00200   0.02224  -0.01976
 161        9D-2       -0.00012   0.00427  -0.00332   0.00410  -0.02492
 162 8   N  1S         -0.00423  -0.02858  -0.01412  -0.05435  -0.06759
 163        2S         -0.09547   0.00725   0.01902   0.03942   0.11330
 164        3S         -0.10615   0.00736   0.03805  -0.00551   0.24826
 165        4S          0.04470  -0.01162   0.01988  -0.15062   0.27328
 166        5PX         0.13945  -0.00468   0.03632  -0.25564   0.20264
 167        5PY        -0.01150   0.01207   0.00313   0.08407   0.01494
 168        5PZ        -0.06029   0.19692  -0.29308   0.00949   0.06285
 169        6PX         0.06100  -0.00011   0.02458  -0.14345   0.15005
 170        6PY         0.00286   0.00835   0.00659   0.01161   0.03458
 171        6PZ        -0.02558   0.08944  -0.13380   0.00700   0.02959
 172        7PX         0.00406  -0.00228   0.00137  -0.01556   0.02763
 173        7PY         0.00356  -0.00346   0.00076  -0.00875   0.01575
 174        7PZ        -0.00013  -0.00049  -0.00047   0.00098  -0.00235
 175        8D 0       -0.00371   0.00003  -0.00167   0.00665  -0.00907
 176        8D+1       -0.00537   0.01815  -0.02643   0.00040   0.00729
 177        8D-1       -0.00254   0.00855  -0.01247   0.00016   0.00341
[...]
 (esu units = cm**3 , SI units = C**2 m**2 J**-1)
 Alpha(0;0):
               (au)            (10**-24 esu)      (10**-40 SI)
   iso        0.104567D+03      0.154952D+02      0.172407D+02
   aniso      0.878887D+02      0.130238D+02      0.144909D+02
   xx         0.702071D+02      0.104036D+02      0.115756D+02
   yx        -0.285075D+02     -0.422437D+01     -0.470024D+01
   yy         0.108260D+03      0.160424D+02      0.178496D+02
   zx         0.124084D+02      0.183874D+01      0.204588D+01
   zy        -0.232557D+02     -0.344614D+01     -0.383435D+01
   zz         0.135233D+03      0.200395D+02      0.222970D+02

 ----------------------------------------------------------------------
 1\1\GINC-LC06-SRV\Freq\UB3LYP\Aug-CC-pVDZ\C7H7N2O1(1+)\UBUNTU\09-Aug-2
 020\0\\#P Geom=AllCheck Guess=TCheck SCRF=Check GenChk UB3LYP/Aug-CC-p
 VDZ Freq\\3-MeOPhN2+_UB3LYP-aug-cc-pVDZ\\1,1\C,1.30561,1.39692,-0.0000
 6\C,0.03564,1.96098,0.00001\C,1.35024,-0.01275,0.\C,-1.11686,1.16399,0
 .00016\C,0.22933,-0.8569,0.00019\C,-1.03513,-0.2477,0.00027\N,2.59757,
 -0.61351,-0.00011\N,3.60479,-1.08859,-0.00015\H,-0.06501,3.04538,-0.00
 006\H,-2.08852,1.65242,0.00022\H,0.31977,-1.94125,0.00023\H,2.21347,1.
 99561,-0.00018\O,-2.07903,-1.08266,0.00031\C,-3.41911,-0.5471,-0.00042
 \H,-3.59423,0.04991,-0.90538\H,-4.07333,-1.42136,-0.0003\H,-3.59479,0.
 05063,0.90396\\Version=ES64L-G16RevA.03\State=1-A\HF=-455.423863\S2=0.
 \S2-1=0.\S2A=0.\RMSD=3.925e-09\RMSF=5.248e-05\ZeroPoint=0.1307195\Ther
 mal=0.1394927\Dipole=0.8008794,0.428503,-0.0003667\DipoleDeriv=0.03797
 28,0.0552896,-0.0000259,-0.4859331,-0.0591224,0.0000382,0.0000427,-0.0
 000157,-0.044688,-0.2041885,-0.1380676,0.0000318,0.0055566,0.2015439,-
 0.0000125,0.0000192,-0.000013,-0.0630414,-0.7264571,0.572864,0.0000382
 ,0.5709748,0.1404303,-0.0000488,0.0000834,-0.0000762,0.0592144,0.05692
 1,0.041715,-0.0000177,-0.4079507,0.0072453,-0.0000228,0.0000553,0.0000
 372,-0.0522493,0.0121845,-0.5646439,-0.0000325,0.2380641,-0.0380696,-0
 .0000285,-0.0000937,0.0000125,-0.0590818,1.3241101,0.8554062,-0.000035
 1,1.2827957,0.145562,0.0000534,-0.0001987,-0.0000663,0.1435102,1.67930
 57,-0.7181656,-0.0001049,-0.7678544,0.52642,0.0000572,-0.0001383,0.000
 1023,0.2546436,-0.6574643,0.3598426,0.0000633,0.3497543,-0.0999514,-0.
 0000274,0.0000561,-0.0000362,0.0852576,0.0770272,0.0035864,0.0000018,-
 0.0077533,0.0613014,0.0000042,-0.0000054,0.0000043,0.1366511,0.0611165
 ,0.0056019,0.0000052,0.0209262,0.1166891,0.0000106,0.0000079,0.0000047
 ,0.1306071,0.0820209,0.0166309,0.0000097,0.0054944,0.1196365,-0.000002
 5,0.0000129,-0.0000171,0.1638059,0.064336,0.0117169,0.0000094,0.025680
 9,0.1121572,0.0000031,0.000008,0.0000082,0.1618848,-1.821463,-0.413391
 3,-0.0001678,-0.6770888,-0.5273894,0.0000192,-0.0000556,0.0001641,-0.2
 376733,1.0281552,0.0082668,0.0002089,-0.2678516,0.2218138,-0.0000434,0
 .0002627,-0.000051,0.2869735,-0.0144246,-0.0394439,0.0387002,0.0883333
 ,0.0251678,0.0674341,-0.0067665,0.0692776,-0.0348433,0.0152088,-0.0177
 95,-0.0000193,-0.0615446,0.0215206,0.0000156,-0.0000146,0.0000263,0.10
 37956,-0.0143614,-0.0394131,-0.0386652,0.0883962,0.0250448,-0.0674496,
 0.0067246,-0.0693616,-0.0347667\Polar=154.5523453,-9.7484568,104.18797
 97,-0.0021355,-0.000561,54.9598439\Quadrupole=14.7735322,-2.4862168,-1
 2.2873154,-1.9529414,0.0012902,0.0004969\PG=C01 [X(C7H7N2O1)]\NImag=0\
 \0.74549818,0.05051335,0.65458355,-0.00006059,-0.00003514,0.12178533,-
 0.31068166,0.06017585,0.00001756,0.66452178,0.11795050,-0.16207953,-0.
 00000322,-0.02094503,0.74162605,0.00001344,0.00000214,-0.06389044,-0.0
 0004343,-0.00004003,0.13732938,-0.08712379,-0.01422412,0.00000408,-0.0
 0459517,0.02825418,-0.00000044,0.55471446,-0.04411980,-0.30163246,0.00
 001548,0.06979309,-0.02182905,-0.00000510,0.07165201,0.65013834,0.0000
 0609,0.00001431,-0.05517048,-0.00000294,-0.00000104,0.00770701,-0.0000
 5460,-0.00003960,0.11791023,-0.05685241,0.00833768,0.00000546,-0.26543
 384,-0.13024895,0.00002553,-0.00916910,-0.01950601,0.00000161,0.734086
 04,-0.02920908,0.05328267,-0.00000026,-0.06893374,-0.19533822,0.000016
 17,-0.01143501,-0.03666804,0.00000223,-0.02021950,0.65562847,0.0000076
 3,-0.00000334,0.00746809,0.00002140,0.00002006,-0.06120197,0.00000048,
 0.00000357,-0.00455136,-0.00004977,-0.00003474,0.13517130,0.02048491,-
 0.04737515,0.00000257,-0.04293236,0.00419266,0.00000268,-0.21054122,-0
 .10623610,0.00003032,0.02162092,0.05331250,-0.00000186,0.66864056,-0.0
 2150338,-0.03448995,0.00000583,-0.01090946,-0.00086582,0.00000106,-0.1
 3129686,-0.20569672,0.00002435,0.03224903,-0.01438404,-0.00000218,0.00
 398496,0.75175173,-0.00000179,0.00000700,0.01239885,0.00000663,0.00000
 030,-0.00251537,0.00003159,0.00002180,-0.04901322,-0.00000390,-0.00000
 572,0.00533599,-0.00005275,-0.00003430,0.11613697,-0.01087284,0.030457
 90,-0.00000090,0.03852825,-0.03178104,-0.00000003,-0.05455591,-0.02014
 365,0.00000569,-0.13638933,-0.00140939,0.00000206,-0.26433259,0.113218
 83,0.00001064,0.70841011,0.02751958,-0.03796254,-0.00000076,-0.0630744
 0,-0.02716769,0.00000583,0.01684484,0.04229586,-0.00000197,0.05486349,
 -0.28639674,0.00001561,0.06588563,-0.16712633,0.00000256,0.00499645,0.
 66860107,0.00000049,-0.00000245,-0.00368864,-0.00000067,0.00000359,0.0
 0100854,0.00000510,0.00000171,0.00113079,-0.00000036,0.00001988,-0.068
 52298,0.00000514,-0.00000103,-0.06667851,0.00000071,-0.00004052,0.1601
 2326,-0.03521940,0.05410965,0.00000007,0.02336207,0.00632172,-0.000001
 23,-0.13539562,0.01528632,0.00001078,-0.00407139,-0.00259269,-0.000000
 10,-0.08561363,0.01469847,0.00000807,0.00158947,-0.02565151,0.00000269
 ,1.35403291,0.05660961,-0.02960544,-0.00000399,-0.00670182,-0.01411925
 ,0.00000147,0.01842242,-0.10361161,0.00000135,-0.00224089,-0.00571849,
 0.00000050,0.00918129,0.01905292,-0.00000217,-0.00784171,0.01221523,0.
 00000027,-0.57636320,0.40070976,0.00000006,-0.00000339,-0.00700365,-0.
 00000104,0.,0.00802697,0.00000953,0.00000222,-0.04551323,-0.00000030,0
 .00000065,-0.00155169,0.00000757,-0.00000355,-0.00634953,0.00000109,0.
 00000352,0.00849473,-0.00006217,0.00002354,0.09365265,0.00729812,-0.02
 301789,0.00000085,-0.01080331,-0.00142888,0.00000108,-0.06139648,0.043
 77881,0.00000373,0.00319956,0.00014850,-0.00000024,0.02059185,0.003523
 49,-0.00000192,-0.00269586,0.01134085,-0.00000075,-1.12076118,0.509770
 68,0.00004555,1.16563326,-0.00763943,0.00761465,0.00000030,0.00460792,
 0.00303129,-0.00000069,0.04080721,0.00305686,-0.00000369,-0.00055979,0
 .00131267,0.00000009,-0.00869446,-0.00644082,0.00000161,0.00222163,-0.
 00507150,0.00000039,0.51061985,-0.27748518,-0.00002135,-0.54147100,0.2
 7336521,0.00000035,0.00000154,0.00462588,0.00000042,0.00000007,-0.0020
 0481,0.00000478,-0.00000442,0.01312374,0.,-0.00000006,0.00059133,-0.00
 000040,0.00000062,0.00432605,-0.00000004,-0.00000123,-0.00193441,0.000
 04330,-0.00002042,-0.04276442,-0.00004845,0.00002326,0.02295143,0.0001
 6184,0.02857478,-0.00000130,-0.05856582,0.02688726,-0.00000111,-0.0039
 4060,0.00159330,0.00000067,0.00485086,-0.02628988,0.00000214,-0.000791
 77,-0.00046849,0.00000017,-0.00417540,-0.00228780,0.00000082,-0.000468
 13,0.00260424,0.00000014,-0.00033536,-0.00041384,-0.00000002,0.0610403
 5,-0.00088619,-0.00690120,0.00000040,0.02688423,-0.34488253,0.00002013
 ,0.00123438,0.00140388,0.00000060,0.00308942,-0.01167002,0.00000022,-0
 .00027347,0.00045935,-0.00000019,-0.00251535,0.00073780,0.00000074,0.0
 0064323,-0.00020540,0.00000012,-0.00032758,-0.00002250,-0.00000006,-0.
 02842595,0.36012096,0.00000064,-0.00000190,0.00455973,-0.00000088,0.00
 002002,-0.03977358,0.00000084,0.00000014,0.00584382,-0.00000021,0.0000
 0326,0.00468314,-0.00000047,-0.00000014,-0.00140890,0.00000139,0.00000
 048,0.00749603,0.00000022,0.00000001,0.00196691,-0.00000003,-0.0000000
 2,-0.00068708,-0.00000061,-0.00002137,0.02656812,-0.00242977,-0.003222
 34,0.00000106,-0.01706736,0.01200258,0.00000118,0.00110531,-0.00078106
 ,-0.00000022,-0.28806340,0.11856028,0.00001444,0.00036591,-0.00060527,
 0.00000075,0.00432346,-0.00035966,0.00000086,-0.00077000,0.00041911,-0
 .00000005,0.00038100,-0.00021131,0.,0.00090095,0.00034214,-0.00000038,
 0.30581909,-0.00404195,-0.00123536,0.00000100,-0.01769197,0.01138698,0
 .00000092,-0.00116340,-0.00092247,0.00000006,0.11866937,-0.11917403,-0
 .00000572,-0.00010717,-0.00589871,0.00000097,0.02850761,-0.00618574,-0
 .00000096,0.00029619,-0.00022054,-0.00000023,-0.00020352,0.00006258,0.
 00000008,-0.00001313,0.00092707,-0.00000031,-0.12266583,0.12052259,0.0
 0000060,0.00000114,0.00694068,0.00000363,-0.00000134,0.00525122,0.0000
 0010,-0.00000027,0.00015563,0.00001551,-0.00000633,-0.03938269,0.00000
 072,0.00000119,0.00564237,-0.00000436,0.00000216,0.00646481,-0.0000002
 1,-0.00000020,-0.00152380,0.00000001,0.00000006,0.00042859,-0.00000050
 ,-0.00000035,-0.00402630,-0.00001701,0.00000472,0.02443252,-0.00448467
 ,-0.00162143,0.00000096,-0.00047488,-0.00003787,0.00000009,0.00304695,
 -0.02574434,0.00000095,-0.00550743,0.00136496,0.00000070,-0.05942968,0
 .02748994,0.00000170,0.00479191,0.02810543,-0.00000042,0.00380826,-0.0
 0183823,-0.00000087,-0.00121470,0.00027852,0.00000020,0.00007389,-0.00
 000474,-0.00000006,0.00021019,0.00134736,-0.00000022,0.05666887,-0.002
 69389,0.00179165,0.00000051,0.00132647,0.00058818,-0.00000026,0.003317
 09,-0.00921136,0.00000008,0.00166739,-0.00055437,0.00000019,0.02628589
 ,-0.34872138,0.00001114,-0.00165154,-0.00610426,0.00000106,0.00150709,
 -0.00018916,-0.00000042,-0.00104410,0.00037987,0.00000014,0.00001537,-
 0.00003719,-0.00000003,-0.00021397,-0.00032588,0.00000003,-0.02705618,
 0.36255191,0.00000164,-0.00000058,0.00430335,-0.00000091,-0.00000025,-
 0.00095144,-0.00000066,0.00000405,0.00166632,0.00000067,0.00000102,0.0
 0535945,0.00000039,0.00001088,-0.03240639,0.00000218,-0.00000300,0.007
 75938,-0.00000051,-0.00000004,-0.00453352,0.00000023,-0.00000004,0.000
 92236,-0.00000007,-0.00000003,-0.00042561,-0.00000004,-0.00000003,-0.0
 0121311,-0.00000297,-0.00001223,0.02175188,-0.26259402,-0.13763529,0.0
 0002969,-0.01465004,-0.01657588,0.00000299,0.00605677,0.00657641,-0.00
 000071,-0.00298726,0.00328446,0.00000070,0.00090852,0.00184543,0.00000
 014,-0.00071679,0.00079983,-0.00000006,0.00147032,-0.00025710,-0.00000
 050,0.00013557,-0.00004565,0.00000005,0.00092234,-0.00007472,-0.000000
 47,-0.00067002,-0.00082898,0.00000003,0.00035534,0.00020721,0.00000009
 ,0.27142943,-0.13540844,-0.14632308,0.00001924,0.01258299,0.01248588,-
 0.00000170,-0.02326369,-0.01385508,0.00000340,0.00313721,-0.00115913,0
 .00000008,0.00300409,-0.00415588,0.00000007,-0.00012663,-0.00023880,0.
 00000001,-0.00371962,0.00193699,0.00000001,0.00131274,-0.00081843,0.00
 000002,-0.00013312,0.00064560,-0.00000026,0.00062727,0.00049518,-0.000
 00006,-0.00103341,-0.00026982,0.00000026,0.14272340,0.15077284,0.00003
 074,0.00001915,-0.03104823,0.00000041,0.00000126,0.00451654,0.00000086
 ,0.00000118,0.00159840,0.00000089,0.00000027,0.00661196,-0.00000079,0.
 ,0.00369527,0.00000029,-0.00000024,-0.00104841,-0.00000037,-0.00000040
 ,-0.00411169,-0.00000016,0.00000019,0.00084578,-0.00000046,-0.00000035
 ,-0.00419336,-0.00000004,0.00000003,-0.00016863,0.00000030,0.00000004,
 0.00173982,-0.00003184,-0.00002092,0.02210484,-0.00594664,-0.00370823,
 0.00000056,0.00320986,0.00463442,0.00000030,0.00120790,0.00615041,-0.0
 0000082,-0.00330876,-0.01977370,-0.00000121,-0.07027051,-0.02833737,0.
 00000222,-0.23873119,-0.12561567,0.00000488,0.00014759,-0.00348237,0.0
 0000017,-0.00119843,0.00126644,0.00000002,0.00000182,0.00015736,0.0000
 0022,-0.00208116,-0.00093820,0.,0.00211967,-0.00190983,0.00000054,0.00
 044432,0.00041927,-0.00000015,0.55772460,-0.00692058,0.00290546,0.0000
 0081,0.01312684,-0.00331388,0.00000012,0.00150819,-0.00385482,-0.00000
 123,-0.04486551,-0.03777144,0.00000669,-0.00108217,0.01896345,-0.00000
 330,-0.08723536,-0.19644879,0.00003141,0.00508947,-0.00233987,-0.00000
 166,-0.00228364,0.00082147,0.00000064,-0.00161123,-0.00067605,0.000000
 13,0.00016451,0.00168229,-0.00000032,-0.00101925,-0.00008547,0.0000002
 4,-0.00000303,0.00044085,-0.00000023,0.06807059,0.32824176,0.00000038,
 0.00000351,-0.00090191,0.00000211,-0.00000036,0.00584376,-0.00000481,-
 0.00000224,0.00335434,-0.00000097,0.00000289,0.01152674,0.00000589,-0.
 00000468,0.00800722,-0.00002434,0.00001785,-0.04652356,-0.00000017,-0.
 00000141,0.00096983,-0.00000062,0.00000074,-0.00030927,-0.00000010,-0.
 00000012,-0.00072195,-0.00000083,-0.00000089,-0.00210821,0.00000009,-0
 .00000036,-0.00334796,-0.00000016,-0.00000018,-0.00036998,0.00010879,-
 0.00007241,0.06732495,0.00268927,-0.00011140,-0.00000034,-0.00374922,0
 .00108559,-0.00000097,-0.00050378,0.00036441,0.00000004,0.00714904,0.0
 0431019,0.00000205,0.00625083,-0.00293885,-0.00000212,-0.05359556,-0.0
 0625783,-0.00001293,-0.00156738,0.00155312,0.00000054,0.00091237,-0.00
 068845,-0.00000013,0.00042620,0.00021028,-0.00000017,-0.00063365,0.000
 63162,0.00000064,-0.00017514,0.00042120,-0.00000024,-0.00021371,-0.000
 13531,0.00000032,-0.16228943,0.03658498,-0.00004837,0.44263668,-0.0011
 3290,0.00063127,0.00000015,0.00120472,0.00027598,0.00000063,-0.0006118
 4,0.00011878,0.00000115,-0.00649612,-0.00162967,-0.00000325,-0.0038570
 1,-0.00289644,0.00000068,-0.02544461,0.01072117,-0.00001296,-0.0001758
 5,-0.00094336,0.00000039,-0.00029739,0.00040863,-0.00000013,-0.0000929
 9,0.00005631,-0.00000007,-0.00183074,-0.00109311,-0.00000038,-0.000113
 51,0.00006399,-0.00000019,0.00003144,0.00004684,-0.00000021,0.06614153
 ,-0.10804471,0.00003939,0.07689014,0.59458643,0.00000099,-0.00000141,-
 0.00005531,-0.00000142,0.00000015,0.00064308,0.00000224,0.00000106,0.0
 0157512,0.00000637,0.00000369,-0.00137588,0.00000432,0.00000219,0.0032
 8539,0.00000301,-0.00000327,-0.00577210,-0.00000011,0.00000152,0.00027
 214,0.00000069,-0.00000088,-0.00011131,0.00000018,0.00000037,0.0000856
 4,-0.00000081,-0.00000109,-0.00052396,-0.00000056,0.00000019,-0.000714
 28,0.00000008,-0.00000003,-0.00027262,-0.00007170,0.00002731,-0.056798
 32,-0.00007141,0.00001607,0.58258970,0.00003154,-0.00060632,-0.0000763
 2,-0.00038734,-0.00004336,0.00045529,0.00057054,0.00051469,0.00026294,
 0.00054571,-0.00096314,-0.00004999,-0.00185169,-0.00000832,0.00086659,
 0.00588520,0.00474807,-0.00214564,-0.00019313,0.00014340,-0.00002086,0
 .00012533,-0.00006379,-0.00000432,-0.00003210,-0.00002039,-0.00004100,
 -0.00085343,-0.00077415,-0.00097832,0.00011962,-0.00008068,-0.00020076
 ,0.00003319,0.00000777,-0.00008437,-0.02333938,0.02208181,-0.02667167,
 -0.05080162,0.01192243,-0.02197755,0.06265053,0.00049428,-0.00029269,0
 .00006700,-0.00063038,-0.00004036,0.00026105,0.00003173,0.00022276,-0.
 00007917,0.00082026,0.00048186,-0.00013085,0.00047937,-0.00003989,-0.0
 0000538,-0.00243137,-0.00085182,-0.00059629,-0.00017018,0.00026040,-0.
 00001550,0.00014458,-0.00010682,0.00001293,0.00001254,0.00001034,-0.00
 002432,-0.00089053,-0.00017002,-0.00078222,-0.00004908,0.00006619,0.00
 006771,-0.00000683,-0.00000938,-0.00005512,0.01084035,-0.00690805,0.00
 757055,0.01643286,-0.12476166,0.11751195,-0.02513140,0.13265669,-0.000
 19636,0.00020888,-0.00014494,0.00062383,-0.00033648,-0.00002411,0.0003
 4767,-0.00007917,0.00006898,-0.00074430,0.00091963,-0.00026152,-0.0005
 9845,-0.00014299,-0.00029316,0.00101201,0.00075076,0.00074398,-0.00029
 192,0.00006669,0.00000645,0.00014678,-0.00004969,-0.00001112,-0.000048
 50,-0.00000273,-0.00000066,-0.00005003,-0.00080152,-0.00000308,0.00006
 494,-0.00001188,0.00001843,0.00004846,-0.00002058,0.00005336,-0.002760
 95,-0.00278186,0.00682722,-0.02866900,0.12000025,-0.23692418,0.0328007
 2,-0.13047219,0.24617989,0.00000986,-0.00004138,0.00000016,0.00010533,
 -0.00022425,-0.00000025,-0.00005039,0.00030728,-0.00000022,-0.00021345
 ,0.00080886,0.00000041,-0.00124834,-0.00093298,-0.00000011,-0.00334347
 ,0.00339458,-0.00000290,-0.00015732,-0.00012184,0.00000024,0.00000286,
 0.00004984,-0.00000006,-0.00003696,-0.00001226,0.,0.00031864,-0.000247
 20,0.00000029,-0.00002807,-0.00001674,-0.00000014,0.00004283,-0.000002
 26,0.,-0.03432654,-0.02371543,-0.00000264,-0.13570404,-0.12815010,0.00
 002168,0.00500367,0.00355465,0.00062823,0.16461047,-0.00002555,0.00000
 550,0.00000017,-0.00018492,0.00028158,-0.00000023,-0.00010872,-0.00017
 733,-0.00000033,0.00048470,-0.00072084,0.00000014,0.00081935,0.0005282
 1,0.00000020,0.00361066,-0.00016347,0.00000132,0.00027096,0.00000273,-
 0.00000012,-0.00009006,-0.00000122,0.00000006,0.00003639,0.00002321,0.
 00000002,-0.00044157,0.00031890,-0.00000005,-0.00001905,-0.00000913,0.
 00000004,-0.00003381,0.00001474,0.,0.01523005,0.01330178,0.00000076,-0
 .14488088,-0.24259255,0.00002731,-0.00821691,-0.01062753,-0.00179831,0
 .14177923,0.25045757,-0.00000011,-0.00000023,-0.00003371,-0.00000013,0
 .00000016,0.00005997,0.00000021,0.00000028,0.00004501,-0.00000056,0.00
 000017,0.00036187,-0.00000104,-0.00000035,0.00013093,-0.00000247,0.000
 00026,0.00020237,-0.00000021,0.,-0.00004451,0.00000007,-0.00000001,0.0
 0001839,-0.00000001,-0.00000009,0.00003467,0.00000050,0.00000035,-0.00
 036499,-0.00000003,0.00000002,0.00005271,0.,0.00000001,-0.00000646,-0.
 00001796,-0.00001260,0.00037601,0.00002800,0.00003371,-0.04920540,0.01
 553517,0.02124543,0.00139602,-0.00001504,-0.00003446,0.04557589,0.0000
 3147,-0.00060565,0.00007644,-0.00038629,-0.00004366,-0.00045512,0.0005
 7010,0.00051424,-0.00026331,0.00054423,-0.00096360,0.00005116,-0.00185
 170,-0.00000919,-0.00086589,0.00588055,0.00474813,0.00214303,-0.000193
 47,0.00014327,0.00002092,0.00012540,-0.00006369,0.00000429,-0.00003212
 ,-0.00002040,0.00004096,-0.00085576,-0.00077663,0.00097907,0.00011988,
 -0.00008079,0.00020057,0.00003323,0.00000774,0.00008437,-0.02336372,0.
 02210982,0.02663743,-0.05083086,0.01201280,0.02208400,0.00249334,-0.00
 350085,-0.00231314,0.00501490,-0.00822986,-0.01552636,0.06270082,0.000
 49387,-0.00029251,-0.00006751,-0.00063039,-0.00003961,-0.00026150,0.00
 003158,0.00022245,0.00007950,0.00081824,0.00047935,0.00013294,0.000479
 79,-0.00003969,0.00000472,-0.00243243,-0.00085347,0.00059382,-0.000169
 90,0.00026028,0.00001576,0.00014441,-0.00010676,-0.00001304,0.00001255
 ,0.00001036,0.00002435,-0.00089362,-0.00016975,0.00078223,-0.00004912,
 0.00006625,-0.00006782,-0.00000689,-0.00000933,0.00005536,0.01085494,-
 0.00691399,-0.00755303,0.01652834,-0.12494791,-0.11758513,-0.00350971,
 0.01010999,0.01455119,0.00357001,-0.01064216,-0.02123264,-0.02524166,0
 .13286651,0.00019580,-0.00020924,-0.00014462,-0.00062457,0.00033712,-0
 .00002474,-0.00034697,0.00007930,0.00006890,0.00074433,-0.00092275,-0.
 00026178,0.00059614,0.00014312,-0.00029396,-0.00100692,-0.00074803,0.0
 0074471,0.00029189,-0.00006672,0.00000639,-0.00014681,0.00004972,-0.00
 001111,0.00004858,0.00000271,-0.00000061,0.00005063,0.00080265,-0.0000
 0103,-0.00006479,0.00001177,0.00001861,-0.00004850,0.00002062,0.000053
 41,0.00273507,0.00280627,0.00685109,0.02877411,-0.12007523,-0.23669770
 ,0.00233008,-0.01457561,-0.01763155,-0.00062966,0.00180350,0.00140123,
 -0.03289842,0.13054081,0.24592276\\-0.00000891,-0.00000255,0.00000451,
 0.00002424,-0.00000077,-0.00000234,0.00004714,-0.00012198,-0.00000578,
 0.00005160,-0.00003218,-0.00000238,0.00011057,0.00006283,-0.00000118,-
 0.00014035,-0.00001295,0.00001558,-0.00011544,0.00012512,-0.00000588,0
 .00003215,-0.00003845,0.00000284,0.00000362,0.00000611,-0.00000071,0.0
 0001973,-0.00001530,0.00000249,-0.00000788,-0.00001250,0.00000075,-0.0
 0000051,0.00001647,0.00000050,-0.00011021,0.00010503,0.00000806,0.0001
 1320,-0.00009405,-0.00001819,-0.00001989,-0.00001645,0.00003248,0.0000
 0329,0.00004448,-0.00000264,-0.00000236,-0.00001285,-0.00002808\\\@


 Age does not diminish the extreme disappointment of
 having a scoop of ice cream fall from the cone.
 -- Jim Fiebig
 Job cpu time:       0 days  2 hours 50 minutes 36.8 seconds.
 Elapsed time:       0 days  0 hours 24 minutes 29.1 seconds.
 File lengths (MBytes):  RWF=    263 Int=      0 D2E=      0 Chk=     10 Scr=      1
 Normal termination of Gaussian 16 at Sun Aug  9 00:26:48 2020.
