 Entering Gaussian System, Link 0=/home/ubuntu/g16/g16
 Input=3-MePhN2+_UB3LYP-aug-cc-pVDZ-Opt.gjf
 Output=3-MePhN2+_UB3LYP-aug-cc-pVDZ-Opt.log
 Initial command:
 /home/ubuntu/g16/l1.exe "/home/ubuntu/g09-linda/scr/Gau-26817.inp" -scrdir="/home/ubuntu/g09-linda/scr/"
 Entering Link 1 = /home/ubuntu/g16/l1.exe PID=     26819.
  
 Copyright (c) 1988,1990,1992,1993,1995,1998,2003,2009,2016,
            Gaussian, Inc.  All Rights Reserved.
  
 This is part of the Gaussian(R) 16 program.  It is based on
 the Gaussian(R) 09 system (copyright 2009, Gaussian, Inc.),
 the Gaussian(R) 03 system (copyright 2003, Gaussian, Inc.),
 the Gaussian(R) 98 system (copyright 1998, Gaussian, Inc.),
 the Gaussian(R) 94 system (copyright 1995, Gaussian, Inc.),
 the Gaussian 92(TM) system (copyright 1992, Gaussian, Inc.),
 the Gaussian 90(TM) system (copyright 1990, Gaussian, Inc.),
 the Gaussian 88(TM) system (copyright 1988, Gaussian, Inc.),
 the Gaussian 86(TM) system (copyright 1986, Carnegie Mellon
 University), and the Gaussian 82(TM) system (copyright 1983,
 Carnegie Mellon University). Gaussian is a federally registered
 trademark of Gaussian, Inc.
  
 This software contains proprietary and confidential information,
 including trade secrets, belonging to Gaussian, Inc.
  
 This software is provided under written license and may be
 used, copied, transmitted, or stored only in accord with that
 written license.
  
 The following legend is applicable only to US Government
 contracts under FAR:
  
                    RESTRICTED RIGHTS LEGEND
  
 Use, reproduction and disclosure by the US Government is
 subject to restrictions as set forth in subparagraphs (a)
 and (c) of the Commercial Computer Software - Restricted
 Rights clause in FAR 52.227-19.
  
 Gaussian, Inc.
 340 Quinnipiac St., Bldg. 40, Wallingford CT 06492
  
  
 ---------------------------------------------------------------
 Warning -- This program may not be used in any manner that
 competes with the business of Gaussian, Inc. or will provide
 assistance to any competitor of Gaussian, Inc.  The licensee
 of this program is prohibited from giving any competitor of
 Gaussian, Inc. access to this program.  By using this program,
 the user acknowledges that Gaussian, Inc. is engaged in the
 business of creating and licensing software in the field of
 computational chemistry and represents and warrants to the
 licensee that it is not a competitor of Gaussian, Inc. and that
 it will not use this program in any manner prohibited above.
 ---------------------------------------------------------------
  

 Cite this work as:
 Gaussian 16, Revision A.03,
 M. J. Frisch, G. W. Trucks, H. B. Schlegel, G. E. Scuseria, 
 M. A. Robb, J. R. Cheeseman, G. Scalmani, V. Barone, 
 G. A. Petersson, H. Nakatsuji, X. Li, M. Caricato, A. V. Marenich, 
 J. Bloino, B. G. Janesko, R. Gomperts, B. Mennucci, H. P. Hratchian, 
 J. V. Ortiz, A. F. Izmaylov, J. L. Sonnenberg, D. Williams-Young, 
 F. Ding, F. Lipparini, F. Egidi, J. Goings, B. Peng, A. Petrone, 
 T. Henderson, D. Ranasinghe, V. G. Zakrzewski, J. Gao, N. Rega, 
 G. Zheng, W. Liang, M. Hada, M. Ehara, K. Toyota, R. Fukuda, 
 J. Hasegawa, M. Ishida, T. Nakajima, Y. Honda, O. Kitao, H. Nakai, 
 T. Vreven, K. Throssell, J. A. Montgomery, Jr., J. E. Peralta, 
 F. Ogliaro, M. J. Bearpark, J. J. Heyd, E. N. Brothers, K. N. Kudin, 
 V. N. Staroverov, T. A. Keith, R. Kobayashi, J. Normand, 
 K. Raghavachari, A. P. Rendell, J. C. Burant, S. S. Iyengar, 
 J. Tomasi, M. Cossi, J. M. Millam, M. Klene, C. Adamo, R. Cammi, 
 J. W. Ochterski, R. L. Martin, K. Morokuma, O. Farkas, 
 J. B. Foresman, and D. J. Fox, Gaussian, Inc., Wallingford CT, 2016.
 
 ******************************************
 Gaussian 16:  ES64L-G16RevA.03 25-Dec-2016
                 9-Aug-2020 
 ******************************************
 %chk=3-MePhN2+_UB3LYP-aug-cc-pVDZ-Opt.chk
 %mem=500MW
 %nproc=7
 Will use up to    7 processors via shared memory.
 ----------------------------------------------------------------------
 #p opt=(maxcycles=777) freq ub3lyp/aug-cc-pVDZ pop=(Bonding,AllOrbital
 s,mk,no,nboread)
 ----------------------------------------------------------------------
 1/6=777,18=20,19=15,26=3,38=1/1,3;
 2/9=110,12=2,17=6,18=5,40=1/2;
 3/5=16,7=10,11=2,25=1,30=1,71=1,74=-5,116=2/1,2,3;
 4//1;
 5/5=2,38=5/2;
 6/7=2,8=2,9=2,10=2,15=8,20=1,22=-1,27=20,28=1,31=1,40=2,96=-1/1,2,7;
 7//1,2,3,16;
 1/6=777,18=20,19=15,26=3/3(2);
 2/9=110/2;
 99//99;
 2/9=110/2;
 3/5=16,7=10,11=2,25=1,30=1,71=1,74=-5,116=2/1,2,3;
 4/5=5,16=3,69=1/1;
 5/5=2,38=5/2;
 7//1,2,3,16;
 1/6=777,18=20,19=15,26=3/3(-5);
 2/9=110/2;
 6/7=2,8=2,9=2,10=2,15=8,19=2,20=1,22=-1,27=20,28=1,31=1,40=2,96=-1/1,2,7;
 99/9=1/99;
 Leave Link    1 at Sun Aug  9 15:47:17 2020, MaxMem=   524288000 cpu:               0.3 elap:               0.0
 (Enter /home/ubuntu/g16/l101.exe)
 ----------------------------
 3-MePhN2+_UB3LYP-aug-cc-pVDZ
 ----------------------------
 Symbolic Z-matrix:
 Charge =  1 Multiplicity = 1
 C                    -0.76549   1.42385   0.00008 
 C                     0.54251   1.88787   0.00006 
 C                    -0.92798   0.02302   0.00001 
 C                     1.61718   0.98519  -0.00003 
 C                     0.13226  -0.90554  -0.00007 
 C                     1.43976  -0.41414  -0.00007 
 N                    -2.21706  -0.4754   -0.00001 
 N                    -3.25665  -0.87644  -0.00001 
 H                     0.73122   2.9605    0.00009 
 H                     2.63239   1.38306  -0.00008 
 H                    -0.07368  -1.97535  -0.00013 
 H                    -1.62357   2.09327   0.00012 
 C                     2.61285  -1.36082   0.00001 
 H                     2.59157  -2.00858   0.88733 
 H                     2.58937  -2.01162  -0.88501 
 H                     3.56228  -0.81489  -0.00205 
 
 ITRead=  0  0  0  0  0  0  0  0  0  0  0  0  0  0  0  0
 MicOpt= -1 -1 -1 -1 -1 -1 -1 -1 -1 -1 -1 -1 -1 -1 -1 -1
 NAtoms=     16 NQM=       16 NQMF=       0 NMMI=      0 NMMIF=      0
                NMic=       0 NMicF=      0.
                    Isotopes and Nuclear Properties:
 (Nuclear quadrupole moments (NQMom) in fm**2, nuclear magnetic moments (NMagM)
  in nuclear magnetons)

  Atom         1           2           3           4           5           6           7           8           9          10
 IAtWgt=          12          12          12          12          12          12          14          14           1           1
 AtmWgt=  12.0000000  12.0000000  12.0000000  12.0000000  12.0000000  12.0000000  14.0030740  14.0030740   1.0078250   1.0078250
 NucSpn=           0           0           0           0           0           0           2           2           1           1
 AtZEff=  -0.0000000  -0.0000000  -0.0000000  -0.0000000  -0.0000000  -0.0000000  -0.0000000  -0.0000000  -0.0000000  -0.0000000
 NQMom=    0.0000000   0.0000000   0.0000000   0.0000000   0.0000000   0.0000000   2.0440000   2.0440000   0.0000000   0.0000000
 NMagM=    0.0000000   0.0000000   0.0000000   0.0000000   0.0000000   0.0000000   0.4037610   0.4037610   2.7928460   2.7928460
 AtZNuc=   6.0000000   6.0000000   6.0000000   6.0000000   6.0000000   6.0000000   7.0000000   7.0000000   1.0000000   1.0000000

  Atom        11          12          13          14          15          16
 IAtWgt=           1           1          12           1           1           1
 AtmWgt=   1.0078250   1.0078250  12.0000000   1.0078250   1.0078250   1.0078250
 NucSpn=           1           1           0           1           1           1
 AtZEff=  -0.0000000  -0.0000000  -0.0000000  -0.0000000  -0.0000000  -0.0000000
 NQMom=    0.0000000   0.0000000   0.0000000   0.0000000   0.0000000   0.0000000
 NMagM=    2.7928460   2.7928460   0.0000000   2.7928460   2.7928460   2.7928460
 AtZNuc=   1.0000000   1.0000000   6.0000000   1.0000000   1.0000000   1.0000000
 Leave Link  101 at Sun Aug  9 15:47:17 2020, MaxMem=   524288000 cpu:               0.6 elap:               0.1
 (Enter /home/ubuntu/g16/l103.exe)

 GradGradGradGradGradGradGradGradGradGradGradGradGradGradGradGradGradGrad
 Berny optimization.
 Initialization pass.
                           ----------------------------
                           !    Initial Parameters    !
                           ! (Angstroms and Degrees)  !
 --------------------------                            --------------------------
 ! Name  Definition              Value          Derivative Info.                !
 --------------------------------------------------------------------------------
 ! R1    R(1,2)                  1.3879         estimate D2E/DX2                !
 ! R2    R(1,3)                  1.4102         estimate D2E/DX2                !
 ! R3    R(1,12)                 1.0883         estimate D2E/DX2                !
 ! R4    R(2,4)                  1.4035         estimate D2E/DX2                !
 ! R5    R(2,9)                  1.0891         estimate D2E/DX2                !
 ! R6    R(3,5)                  1.4094         estimate D2E/DX2                !
 ! R7    R(3,7)                  1.3821         estimate D2E/DX2                !
 ! R8    R(4,6)                  1.4105         estimate D2E/DX2                !
 ! R9    R(4,10)                 1.0904         estimate D2E/DX2                !
 ! R10   R(5,6)                  1.3968         estimate D2E/DX2                !
 ! R11   R(5,11)                 1.0895         estimate D2E/DX2                !
 ! R12   R(6,13)                 1.5074         estimate D2E/DX2                !
 ! R13   R(7,8)                  1.1143         estimate D2E/DX2                !
 ! R14   R(13,14)                1.0988         estimate D2E/DX2                !
 ! R15   R(13,15)                1.0988         estimate D2E/DX2                !
 ! R16   R(13,16)                1.0952         estimate D2E/DX2                !
 ! A1    A(2,1,3)              116.1489         estimate D2E/DX2                !
 ! A2    A(2,1,12)             122.5085         estimate D2E/DX2                !
 ! A3    A(3,1,12)             121.3426         estimate D2E/DX2                !
 ! A4    A(1,2,4)              120.4387         estimate D2E/DX2                !
 ! A5    A(1,2,9)              119.5105         estimate D2E/DX2                !
 ! A6    A(4,2,9)              120.0509         estimate D2E/DX2                !
 ! A7    A(1,3,5)              124.5954         estimate D2E/DX2                !
 ! A8    A(1,3,7)              117.7554         estimate D2E/DX2                !
 ! A9    A(5,3,7)              117.6492         estimate D2E/DX2                !
 ! A10   A(2,4,6)              122.803          estimate D2E/DX2                !
 ! A11   A(2,4,10)             118.5704         estimate D2E/DX2                !
 ! A12   A(6,4,10)             118.6266         estimate D2E/DX2                !
 ! A13   A(3,5,6)              118.1903         estimate D2E/DX2                !
 ! A14   A(3,5,11)             120.3157         estimate D2E/DX2                !
 ! A15   A(6,5,11)             121.494          estimate D2E/DX2                !
 ! A16   A(4,6,5)              117.8237         estimate D2E/DX2                !
 ! A17   A(4,6,13)             121.6775         estimate D2E/DX2                !
 ! A18   A(5,6,13)             120.4988         estimate D2E/DX2                !
 ! A19   A(6,13,14)            110.8051         estimate D2E/DX2                !
 ! A20   A(6,13,15)            110.8111         estimate D2E/DX2                !
 ! A21   A(6,13,16)            111.1973         estimate D2E/DX2                !
 ! A22   A(14,13,15)           107.5085         estimate D2E/DX2                !
 ! A23   A(14,13,16)           108.1897         estimate D2E/DX2                !
 ! A24   A(15,13,16)           108.1948         estimate D2E/DX2                !
 ! A25   L(3,7,8,11,-1)        180.0439         estimate D2E/DX2                !
 ! A26   L(3,7,8,11,-2)        179.999          estimate D2E/DX2                !
 ! D1    D(3,1,2,4)              0.0002         estimate D2E/DX2                !
 ! D2    D(3,1,2,9)            179.9987         estimate D2E/DX2                !
 ! D3    D(12,1,2,4)          -179.9982         estimate D2E/DX2                !
 ! D4    D(12,1,2,9)             0.0003         estimate D2E/DX2                !
 ! D5    D(2,1,3,5)              0.0003         estimate D2E/DX2                !
 ! D6    D(2,1,3,7)           -179.9982         estimate D2E/DX2                !
 ! D7    D(12,1,3,5)           179.9987         estimate D2E/DX2                !
 ! D8    D(12,1,3,7)             0.0002         estimate D2E/DX2                !
 ! D9    D(1,2,4,6)             -0.0016         estimate D2E/DX2                !
 ! D10   D(1,2,4,10)           179.9978         estimate D2E/DX2                !
 ! D11   D(9,2,4,6)            179.9999         estimate D2E/DX2                !
 ! D12   D(9,2,4,10)            -0.0007         estimate D2E/DX2                !
 ! D13   D(1,3,5,6)              0.0005         estimate D2E/DX2                !
 ! D14   D(1,3,5,11)          -179.9995         estimate D2E/DX2                !
 ! D15   D(7,3,5,6)            179.9991         estimate D2E/DX2                !
 ! D16   D(7,3,5,11)            -0.0009         estimate D2E/DX2                !
 ! D17   D(2,4,6,5)              0.0025         estimate D2E/DX2                !
 ! D18   D(2,4,6,13)          -179.9921         estimate D2E/DX2                !
 ! D19   D(10,4,6,5)          -179.997          estimate D2E/DX2                !
 ! D20   D(10,4,6,13)            0.0085         estimate D2E/DX2                !
 ! D21   D(3,5,6,4)             -0.0019         estimate D2E/DX2                !
 ! D22   D(3,5,6,13)           179.9928         estimate D2E/DX2                !
 ! D23   D(11,5,6,4)           179.9981         estimate D2E/DX2                !
 ! D24   D(11,5,6,13)           -0.0072         estimate D2E/DX2                !
 ! D25   D(4,6,13,14)          120.2461         estimate D2E/DX2                !
 ! D26   D(4,6,13,15)         -120.4977         estimate D2E/DX2                !
 ! D27   D(4,6,13,16)           -0.1206         estimate D2E/DX2                !
 ! D28   D(5,6,13,14)          -59.7484         estimate D2E/DX2                !
 ! D29   D(5,6,13,15)           59.5079         estimate D2E/DX2                !
 ! D30   D(5,6,13,16)          179.885          estimate D2E/DX2                !
 --------------------------------------------------------------------------------
 Trust Radius=3.00D-01 FncErr=1.00D-07 GrdErr=1.00D-06 EigMax=2.50D+02 EigMin=1.00D-04
 Number of steps in this run=    100 maximum allowed number of steps=    100.
 GradGradGradGradGradGradGradGradGradGradGradGradGradGradGradGradGradGrad

 Leave Link  103 at Sun Aug  9 15:47:17 2020, MaxMem=   524288000 cpu:               0.1 elap:               0.0
 (Enter /home/ubuntu/g16/l202.exe)
                          Input orientation:                          
 ---------------------------------------------------------------------
 Center     Atomic      Atomic             Coordinates (Angstroms)
 Number     Number       Type             X           Y           Z
 ---------------------------------------------------------------------
      1          6           0       -0.765490    1.423850    0.000080
      2          6           0        0.542510    1.887870    0.000060
      3          6           0       -0.927980    0.023020    0.000010
      4          6           0        1.617180    0.985190   -0.000030
      5          6           0        0.132260   -0.905540   -0.000070
      6          6           0        1.439760   -0.414140   -0.000070
      7          7           0       -2.217060   -0.475400   -0.000010
      8          7           0       -3.256650   -0.876440   -0.000010
      9          1           0        0.731220    2.960500    0.000090
     10          1           0        2.632390    1.383060   -0.000080
     11          1           0       -0.073680   -1.975350   -0.000130
     12          1           0       -1.623570    2.093270    0.000120
     13          6           0        2.612850   -1.360820    0.000010
     14          1           0        2.591570   -2.008580    0.887330
     15          1           0        2.589370   -2.011620   -0.885010
     16          1           0        3.562280   -0.814890   -0.002050
 ---------------------------------------------------------------------
                    Distance matrix (angstroms):
                    1          2          3          4          5
     1  C    0.000000
     2  C    1.387868   0.000000
     3  C    1.410223   2.374870   0.000000
     4  C    2.422713   1.403477   2.720958   0.000000
     5  C    2.496400   2.823375   1.409373   2.404131   0.000000
     6  C    2.870773   2.470690   2.407759   1.410533   1.396793
     7  N    2.390441   3.633218   1.382082   4.103013   2.388373
     8  N    3.390754   4.698407   2.496344   5.217268   3.389035
     9  H    2.145095   1.089104   3.373682   2.164896   3.912163
    10  H    3.398125   2.149984   3.811292   1.090391   3.389445
    11  H    3.468885   3.912053   2.173318   3.409370   1.089452
    12  H    1.088313   2.175797   2.183983   3.424953   3.475025
    13  C    4.378078   3.852310   3.801643   2.548553   2.522024
    14  H    4.882483   4.490904   4.159563   3.271009   2.837672
    15  H    4.882717   4.492105   4.158698   3.272493   2.836181
    16  H    4.872531   4.052644   4.567771   2.650228   3.431218
                    6          7          8          9         10
     6  C    0.000000
     7  N    3.657333   0.000000
     8  N    4.719109   1.114262   0.000000
     9  H    3.448220   4.527446   5.534005   0.000000
    10  H    2.156918   5.193365   6.307625   2.470377   0.000000
    11  H    2.174368   2.616090   3.367328   5.001048   4.312973
    12  H    3.958673   2.636341   3.389119   2.509407   4.314811
    13  C    1.507429   4.910397   5.889453   4.713209   2.743950
    14  H    2.157866   5.124542   6.022524   5.379577   3.506050
    15  H    2.157931   5.122984   6.020615   5.381273   3.508391
    16  H    2.160022   5.789303   6.819208   4.718949   2.386563
                   11         12         13         14         15
    11  H    0.000000
    12  H    4.353829   0.000000
    13  C    2.755919   5.466076   0.000000
    14  H    2.809314   5.948085   1.098810   0.000000
    15  H    2.806450   5.948314   1.098796   1.772344   0.000000
    16  H    3.816658   5.945624   1.095199   1.777124   1.777170
                   16
    16  H    0.000000
 Stoichiometry    C7H7N2(1+)
 Framework group  C1[X(C7H7N2)]
 Deg. of freedom    42
 Full point group                 C1      NOp   1
 Largest Abelian subgroup         C1      NOp   1
 Largest concise Abelian subgroup C1      NOp   1
                         Standard orientation:                         
 ---------------------------------------------------------------------
 Center     Atomic      Atomic             Coordinates (Angstroms)
 Number     Number       Type             X           Y           Z
 ---------------------------------------------------------------------
      1          6           0       -0.765493    1.423848    0.000079
      2          6           0        0.542507    1.887869    0.000059
      3          6           0       -0.927982    0.023018    0.000009
      4          6           0        1.617177    0.985189   -0.000031
      5          6           0        0.132258   -0.905541   -0.000071
      6          6           0        1.439758   -0.414141   -0.000071
      7          7           0       -2.217062   -0.475402   -0.000011
      8          7           0       -3.256652   -0.876442   -0.000011
      9          1           0        0.731217    2.960499    0.000089
     10          1           0        2.632387    1.383059   -0.000081
     11          1           0       -0.073682   -1.975351   -0.000131
     12          1           0       -1.623573    2.093268    0.000119
     13          6           0        2.612848   -1.360821    0.000009
     14          1           0        2.591568   -2.008581    0.887329
     15          1           0        2.589368   -2.011621   -0.885011
     16          1           0        3.562278   -0.814891   -0.002051
 ---------------------------------------------------------------------
 Rotational constants (GHZ):           3.2427123           1.2199490           0.8914038
 Leave Link  202 at Sun Aug  9 15:47:17 2020, MaxMem=   524288000 cpu:               0.1 elap:               0.0
 (Enter /home/ubuntu/g16/l301.exe)
 Standard basis: Aug-CC-pVDZ (5D, 7F)
 Ernie: Thresh=  0.10000D-02 Tol=  0.10000D-05 Strict=F.
 Ernie:  18 primitive shells out of 274 were deleted.
 There are   288 symmetry adapted cartesian basis functions of A   symmetry.
 There are   270 symmetry adapted basis functions of A   symmetry.
   270 basis functions,   464 primitive gaussians,   288 cartesian basis functions
    31 alpha electrons       31 beta electrons
       nuclear repulsion energy       388.9377978957 Hartrees.
 IExCor=  402 DFT=T Ex+Corr=B3LYP ExCW=0 ScaHFX=  0.200000
 ScaDFX=  0.800000  0.720000  1.000000  0.810000 ScalE2=  1.000000  1.000000
 IRadAn=      5 IRanWt=     -1 IRanGd=            0 ICorTp=0 IEmpDi=  4
 NAtoms=   16 NActive=   16 NUniq=   16 SFac= 1.00D+00 NAtFMM=   60 NAOKFM=F Big=F
 Integral buffers will be    131072 words long.
 Raffenetti 2 integral format.
 Two-electron integral symmetry is turned on.
 Leave Link  301 at Sun Aug  9 15:47:17 2020, MaxMem=   524288000 cpu:               0.3 elap:               0.0
 (Enter /home/ubuntu/g16/l302.exe)
 NPDir=0 NMtPBC=     1 NCelOv=     1 NCel=       1 NClECP=     1 NCelD=      1
         NCelK=      1 NCelE2=     1 NClLst=     1 CellRange=     0.0.
 One-electron integrals computed using PRISM.
 One-electron integral symmetry used in STVInt
 NBasis=   270 RedAO= T EigKep=  2.06D-06  NBF=   270
 NBsUse=   270 1.00D-06 EigRej= -1.00D+00 NBFU=   270
 Precomputing XC quadrature grid using
 IXCGrd= 4 IRadAn=           5 IRanWt=          -1 IRanGd=           0 AccXCQ= 0.00D+00.
 Generated NRdTot=       0 NPtTot=           0 NUsed=           0 NTot=          32
 NSgBfM=   288   288   288   288   288 MxSgAt=    16 MxSgA2=    16.
 Leave Link  302 at Sun Aug  9 15:47:17 2020, MaxMem=   524288000 cpu:               2.2 elap:               0.3
 (Enter /home/ubuntu/g16/l303.exe)
 DipDrv:  MaxL=1.
 Leave Link  303 at Sun Aug  9 15:47:17 2020, MaxMem=   524288000 cpu:               0.3 elap:               0.1
 (Enter /home/ubuntu/g16/l401.exe)
 ExpMin= 2.97D-02 ExpMax= 9.05D+03 ExpMxC= 3.09D+02 IAcc=3 IRadAn=         5 AccDes= 0.00D+00
 Harris functional with IExCor=  402 and IRadAn=       5 diagonalized for initial guess.
 HarFok:  IExCor=  402 AccDes= 0.00D+00 IRadAn=         5 IDoV= 1 UseB2=F ITyADJ=14
 ICtDFT=  3500011 ScaDFX=  1.000000  1.000000  1.000000  1.000000
 FoFCou: FMM=F IPFlag=           0 FMFlag=      100000 FMFlg1=           0
         NFxFlg=           0 DoJE=T BraDBF=F KetDBF=T FulRan=T
         wScrn=  0.000000 ICntrl=       500 IOpCl=  0 I1Cent=   200000004 NGrid=           0
         NMat0=    1 NMatS0=      1 NMatT0=    0 NMatD0=    1 NMtDS0=    0 NMtDT0=    0
 Petite list used in FoFCou.
 Harris En= -380.253259048950    
 JPrj=0 DoOrth=F DoCkMO=F.
 Initial guess <Sx>= 0.0000 <Sy>= 0.0000 <Sz>= 0.0000 <S**2>= 0.0000 S= 0.0000
 Leave Link  401 at Sun Aug  9 15:47:20 2020, MaxMem=   524288000 cpu:              19.0 elap:               2.7
 (Enter /home/ubuntu/g16/l502.exe)
 Integral symmetry usage will be decided dynamically.
 UHF open shell SCF:
 Using DIIS extrapolation, IDIIS=  1040.
 NGot=   524288000 LenX=   524117314 LenY=   524033929
 Requested convergence on RMS density matrix=1.00D-08 within 128 cycles.
 Requested convergence on MAX density matrix=1.00D-06.
 Requested convergence on             energy=1.00D-06.
 No special actions if energy rises.
 Fock matrices will be formed incrementally for  20 cycles.

 Cycle   1  Pass 1  IDiag  1:
 FoFJK:  IHMeth= 1 ICntrl=       0 DoSepK=F KAlg= 0 I1Cent=           0 FoldK=F
 IRaf= 980000000 NMat=       1 IRICut=       1 DoRegI=T DoRafI=F ISym2E= 0 IDoP0=0 IntGTp=1.
 FoFCou: FMM=F IPFlag=           0 FMFlag=      100000 FMFlg1=           0
         NFxFlg=           0 DoJE=F BraDBF=F KetDBF=F FulRan=T
         wScrn=  0.000000 ICntrl=         0 IOpCl=  1 I1Cent=           0 NGrid=           0
         NMat0=    1 NMatS0=      1 NMatT0=    0 NMatD0=    1 NMtDS0=    0 NMtDT0=    0
 Symmetry not used in FoFCou.
 E= -379.976629595304    
 DIIS: error= 1.92D-02 at cycle   1 NSaved=   1.
 NSaved= 1 IEnMin= 1 EnMin= -379.976629595304     IErMin= 1 ErrMin= 1.92D-02
 ErrMax= 1.92D-02  0.00D+00 EMaxC= 1.00D-01 BMatC= 7.56D-01 BMatP= 7.56D-01
 IDIUse=3 WtCom= 8.08D-01 WtEn= 1.92D-01
 Coeff-Com:  0.100D+01
 Coeff-En:   0.100D+01
 Coeff:      0.100D+01
 Gap=     0.139 Goal=   None    Shift=    0.000
 Gap=     0.139 Goal=   None    Shift=    0.000
 GapD=    0.139 DampG=1.000 DampE=0.500 DampFc=0.5000 IDamp=-1.
 Damping current iteration by 5.00D-01
 RMSDP=5.40D-02 MaxDP=2.63D+00              OVMax= 7.42D-01

 Cycle   2  Pass 1  IDiag  1:
 RMSU=  1.06D-02    CP:  8.01D-01
 E= -379.184947909382     Delta-E=        0.791681685922 Rises=F Damp=T
 DIIS: error= 3.83D-02 at cycle   2 NSaved=   2.
 NSaved= 2 IEnMin= 1 EnMin= -379.976629595304     IErMin= 1 ErrMin= 1.92D-02
 ErrMax= 3.83D-02  0.00D+00 EMaxC= 1.00D-01 BMatC= 1.32D+00 BMatP= 7.56D-01
 IDIUse=2 WtCom= 0.00D+00 WtEn= 1.00D+00
 Coeff-En:   0.837D+00 0.163D+00
 Coeff:      0.837D+00 0.163D+00
 Gap=     0.050 Goal=   None    Shift=    0.000
 Gap=     0.050 Goal=   None    Shift=    0.000
 RMSDP=2.70D-02 MaxDP=1.50D+00 DE= 7.92D-01 OVMax= 9.85D-01

 Cycle   3  Pass 1  IDiag  1:
 RMSU=  6.25D-03    CP:  5.95D-01  1.49D+00
 E= -380.025148249488     Delta-E=       -0.840200340106 Rises=F Damp=F
 DIIS: error= 2.52D-02 at cycle   3 NSaved=   3.
 NSaved= 3 IEnMin= 3 EnMin= -380.025148249488     IErMin= 1 ErrMin= 1.92D-02
 ErrMax= 2.52D-02  0.00D+00 EMaxC= 1.00D-01 BMatC= 6.68D-01 BMatP= 7.56D-01
 IDIUse=3 WtCom= 7.48D-01 WtEn= 2.52D-01
 Coeff-Com:  0.478D+00 0.524D-01 0.469D+00
 Coeff-En:   0.447D+00 0.000D+00 0.553D+00
 Coeff:      0.470D+00 0.392D-01 0.490D+00
 Gap=     0.156 Goal=   None    Shift=    0.000
 Gap=     0.156 Goal=   None    Shift=    0.000
 RMSDP=7.72D-03 MaxDP=2.76D-01 DE=-8.40D-01 OVMax= 1.86D-01

 Cycle   4  Pass 1  IDiag  1:
 RMSU=  4.67D-03    CP:  6.22D-01  1.02D+00  1.13D+00
 E= -380.177948929673     Delta-E=       -0.152800680185 Rises=F Damp=F
 DIIS: error= 1.16D-02 at cycle   4 NSaved=   4.
 NSaved= 4 IEnMin= 4 EnMin= -380.177948929673     IErMin= 4 ErrMin= 1.16D-02
 ErrMax= 1.16D-02  0.00D+00 EMaxC= 1.00D-01 BMatC= 1.29D-01 BMatP= 6.68D-01
 IDIUse=3 WtCom= 8.84D-01 WtEn= 1.16D-01
 Coeff-Com:  0.246D+00-0.158D-01 0.356D+00 0.414D+00
 Coeff-En:   0.000D+00 0.000D+00 0.103D+00 0.897D+00
 Coeff:      0.217D+00-0.139D-01 0.326D+00 0.470D+00
 Gap=     0.145 Goal=   None    Shift=    0.000
 Gap=     0.145 Goal=   None    Shift=    0.000
 RMSDP=2.42D-03 MaxDP=1.11D-01 DE=-1.53D-01 OVMax= 6.14D-02

 Cycle   5  Pass 1  IDiag  1:
 RMSU=  1.80D-03    CP:  6.30D-01  1.02D+00  1.05D+00  7.42D-01
 E= -380.200035787615     Delta-E=       -0.022086857942 Rises=F Damp=F
 DIIS: error= 4.97D-03 at cycle   5 NSaved=   5.
 NSaved= 5 IEnMin= 5 EnMin= -380.200035787615     IErMin= 5 ErrMin= 4.97D-03
 ErrMax= 4.97D-03  0.00D+00 EMaxC= 1.00D-01 BMatC= 2.83D-02 BMatP= 1.29D-01
 IDIUse=3 WtCom= 9.50D-01 WtEn= 4.97D-02
 Coeff-Com:  0.266D-01-0.154D-01 0.707D-01 0.336D+00 0.582D+00
 Coeff-En:   0.000D+00 0.000D+00 0.000D+00 0.241D+00 0.759D+00
 Coeff:      0.253D-01-0.146D-01 0.672D-01 0.332D+00 0.591D+00
 Gap=     0.147 Goal=   None    Shift=    0.000
 Gap=     0.147 Goal=   None    Shift=    0.000
 RMSDP=6.52D-04 MaxDP=1.95D-02 DE=-2.21D-02 OVMax= 2.17D-02

 Cycle   6  Pass 1  IDiag  1:
 RMSU=  4.17D-04    CP:  6.28D-01  1.02D+00  1.05D+00  7.68D-01  7.65D-01
 E= -380.205868745557     Delta-E=       -0.005832957942 Rises=F Damp=F
 DIIS: error= 8.27D-04 at cycle   6 NSaved=   6.
 NSaved= 6 IEnMin= 6 EnMin= -380.205868745557     IErMin= 6 ErrMin= 8.27D-04
 ErrMax= 8.27D-04  0.00D+00 EMaxC= 1.00D-01 BMatC= 1.08D-03 BMatP= 2.83D-02
 IDIUse=3 WtCom= 9.92D-01 WtEn= 8.27D-03
 Coeff-Com:  0.895D-02-0.136D-01 0.235D-01 0.148D+00 0.316D+00 0.517D+00
 Coeff-En:   0.000D+00 0.000D+00 0.000D+00 0.000D+00 0.000D+00 0.100D+01
 Coeff:      0.888D-02-0.135D-01 0.233D-01 0.147D+00 0.313D+00 0.521D+00
 Gap=     0.148 Goal=   None    Shift=    0.000
 Gap=     0.148 Goal=   None    Shift=    0.000
 RMSDP=2.50D-04 MaxDP=1.29D-02 DE=-5.83D-03 OVMax= 7.14D-03

 Cycle   7  Pass 1  IDiag  1:
 RMSU=  1.55D-04    CP:  6.27D-01  1.02D+00  1.06D+00  7.91D-01  7.13D-01
                    CP:  8.36D-01
 E= -380.206102612617     Delta-E=       -0.000233867059 Rises=F Damp=F
 DIIS: error= 3.89D-04 at cycle   7 NSaved=   7.
 NSaved= 7 IEnMin= 7 EnMin= -380.206102612617     IErMin= 7 ErrMin= 3.89D-04
 ErrMax= 3.89D-04  0.00D+00 EMaxC= 1.00D-01 BMatC= 2.64D-04 BMatP= 1.08D-03
 IDIUse=3 WtCom= 9.96D-01 WtEn= 3.89D-03
 Coeff-Com:  0.431D-02-0.896D-02 0.148D-02 0.256D-01 0.918D-01 0.321D+00
 Coeff-Com:  0.565D+00
 Coeff-En:   0.000D+00 0.000D+00 0.000D+00 0.000D+00 0.000D+00 0.000D+00
 Coeff-En:   0.100D+01
 Coeff:      0.429D-02-0.893D-02 0.148D-02 0.255D-01 0.915D-01 0.319D+00
 Coeff:      0.567D+00
 Gap=     0.149 Goal=   None    Shift=    0.000
 Gap=     0.149 Goal=   None    Shift=    0.000
 RMSDP=1.10D-04 MaxDP=5.56D-03 DE=-2.34D-04 OVMax= 2.53D-03

 Cycle   8  Pass 1  IDiag  1:
 RMSU=  7.48D-05    CP:  6.27D-01  1.02D+00  1.06D+00  7.89D-01  7.28D-01
                    CP:  7.84D-01  6.19D-01
 E= -380.206160651002     Delta-E=       -0.000058038385 Rises=F Damp=F
 DIIS: error= 2.01D-04 at cycle   8 NSaved=   8.
 NSaved= 8 IEnMin= 8 EnMin= -380.206160651002     IErMin= 8 ErrMin= 2.01D-04
 ErrMax= 2.01D-04  0.00D+00 EMaxC= 1.00D-01 BMatC= 5.35D-05 BMatP= 2.64D-04
 IDIUse=3 WtCom= 9.98D-01 WtEn= 2.01D-03
 Coeff-Com:  0.376D-02-0.267D-02-0.525D-03-0.161D-01-0.354D-01-0.111D+00
 Coeff-Com: -0.179D-01 0.118D+01
 Coeff-En:   0.000D+00 0.000D+00 0.000D+00 0.000D+00 0.000D+00 0.000D+00
 Coeff-En:   0.000D+00 0.100D+01
 Coeff:      0.375D-02-0.267D-02-0.524D-03-0.160D-01-0.354D-01-0.111D+00
 Coeff:     -0.179D-01 0.118D+01
 Gap=     0.149 Goal=   None    Shift=    0.000
 Gap=     0.149 Goal=   None    Shift=    0.000
 RMSDP=5.04D-05 MaxDP=1.66D-03 DE=-5.80D-05 OVMax= 2.52D-03

 Cycle   9  Pass 1  IDiag  1:
 RMSU=  3.97D-05    CP:  6.27D-01  1.02D+00  1.06D+00  7.89D-01  7.25D-01
                    CP:  7.52D-01  6.29D-01  1.01D+00
 E= -380.206179134482     Delta-E=       -0.000018483480 Rises=F Damp=F
 DIIS: error= 7.55D-05 at cycle   9 NSaved=   9.
 NSaved= 9 IEnMin= 9 EnMin= -380.206179134482     IErMin= 9 ErrMin= 7.55D-05
 ErrMax= 7.55D-05  0.00D+00 EMaxC= 1.00D-01 BMatC= 8.55D-06 BMatP= 5.35D-05
 IDIUse=1 WtCom= 1.00D+00 WtEn= 0.00D+00
 Coeff-Com:  0.171D-02-0.360D-03-0.515D-03-0.123D-01-0.358D-01-0.120D+00
 Coeff-Com: -0.135D+00 0.692D+00 0.610D+00
 Coeff:      0.171D-02-0.360D-03-0.515D-03-0.123D-01-0.358D-01-0.120D+00
 Coeff:     -0.135D+00 0.692D+00 0.610D+00
 Gap=     0.149 Goal=   None    Shift=    0.000
 Gap=     0.149 Goal=   None    Shift=    0.000
 RMSDP=3.41D-05 MaxDP=1.38D-03 DE=-1.85D-05 OVMax= 1.10D-03

 Cycle  10  Pass 1  IDiag  1:
 RMSU=  2.18D-05    CP:  6.27D-01  1.02D+00  1.06D+00  7.91D-01  7.23D-01
                    CP:  7.58D-01  6.18D-01  1.25D+00  7.54D-01
 E= -380.206181405311     Delta-E=       -0.000002270829 Rises=F Damp=F
 DIIS: error= 2.53D-05 at cycle  10 NSaved=  10.
 NSaved=10 IEnMin=10 EnMin= -380.206181405311     IErMin=10 ErrMin= 2.53D-05
 ErrMax= 2.53D-05  0.00D+00 EMaxC= 1.00D-01 BMatC= 1.40D-06 BMatP= 8.55D-06
 IDIUse=1 WtCom= 1.00D+00 WtEn= 0.00D+00
 Coeff-Com:  0.349D-03 0.509D-04-0.330D-04-0.153D-02-0.834D-02-0.276D-01
 Coeff-Com: -0.598D-01 0.150D+00 0.343D+00 0.604D+00
 Coeff:      0.349D-03 0.509D-04-0.330D-04-0.153D-02-0.834D-02-0.276D-01
 Coeff:     -0.598D-01 0.150D+00 0.343D+00 0.604D+00
 Gap=     0.149 Goal=   None    Shift=    0.000
 Gap=     0.149 Goal=   None    Shift=    0.000
 RMSDP=1.10D-05 MaxDP=6.15D-04 DE=-2.27D-06 OVMax= 3.42D-04

 Cycle  11  Pass 1  IDiag  1:
 RMSU=  7.50D-06    CP:  6.27D-01  1.02D+00  1.06D+00  7.91D-01  7.23D-01
                    CP:  7.52D-01  6.13D-01  1.23D+00  7.89D-01  6.78D-01
 E= -380.206181723755     Delta-E=       -0.000000318444 Rises=F Damp=F
 DIIS: error= 1.11D-05 at cycle  11 NSaved=  11.
 NSaved=11 IEnMin=11 EnMin= -380.206181723755     IErMin=11 ErrMin= 1.11D-05
 ErrMax= 1.11D-05  0.00D+00 EMaxC= 1.00D-01 BMatC= 2.18D-07 BMatP= 1.40D-06
 IDIUse=1 WtCom= 1.00D+00 WtEn= 0.00D+00
 Coeff-Com:  0.892D-04 0.257D-04 0.849D-04 0.496D-03-0.127D-02-0.352D-02
 Coeff-Com: -0.231D-01 0.329D-01 0.165D+00 0.375D+00 0.454D+00
 Coeff:      0.892D-04 0.257D-04 0.849D-04 0.496D-03-0.127D-02-0.352D-02
 Coeff:     -0.231D-01 0.329D-01 0.165D+00 0.375D+00 0.454D+00
 Gap=     0.149 Goal=   None    Shift=    0.000
 Gap=     0.149 Goal=   None    Shift=    0.000
 RMSDP=4.30D-06 MaxDP=1.93D-04 DE=-3.18D-07 OVMax= 1.27D-04

 Cycle  12  Pass 1  IDiag  1:
 RMSU=  2.56D-06    CP:  6.27D-01  1.02D+00  1.06D+00  7.91D-01  7.23D-01
                    CP:  7.55D-01  6.10D-01  1.21D+00  8.00D-01  6.69D-01
                    CP:  6.92D-01
 E= -380.206181782373     Delta-E=       -0.000000058618 Rises=F Damp=F
 DIIS: error= 2.07D-06 at cycle  12 NSaved=  12.
 NSaved=12 IEnMin=12 EnMin= -380.206181782373     IErMin=12 ErrMin= 2.07D-06
 ErrMax= 2.07D-06  0.00D+00 EMaxC= 1.00D-01 BMatC= 7.61D-09 BMatP= 2.18D-07
 IDIUse=1 WtCom= 1.00D+00 WtEn= 0.00D+00
 Coeff-Com: -0.763D-05 0.232D-05 0.271D-04 0.382D-03 0.635D-03 0.268D-02
 Coeff-Com: -0.976D-03-0.226D-02 0.254D-01 0.634D-01 0.134D+00 0.776D+00
 Coeff:     -0.763D-05 0.232D-05 0.271D-04 0.382D-03 0.635D-03 0.268D-02
 Coeff:     -0.976D-03-0.226D-02 0.254D-01 0.634D-01 0.134D+00 0.776D+00
 Gap=     0.149 Goal=   None    Shift=    0.000
 Gap=     0.149 Goal=   None    Shift=    0.000
 RMSDP=9.57D-07 MaxDP=4.99D-05 DE=-5.86D-08 OVMax= 2.40D-05

 Cycle  13  Pass 1  IDiag  1:
 RMSU=  7.26D-07    CP:  6.27D-01  1.02D+00  1.06D+00  7.91D-01  7.23D-01
                    CP:  7.55D-01  6.10D-01  1.21D+00  7.97D-01  6.70D-01
                    CP:  6.99D-01  9.19D-01
 E= -380.206181784630     Delta-E=       -0.000000002258 Rises=F Damp=F
 DIIS: error= 1.02D-06 at cycle  13 NSaved=  13.
 NSaved=13 IEnMin=13 EnMin= -380.206181784630     IErMin=13 ErrMin= 1.02D-06
 ErrMax= 1.02D-06  0.00D+00 EMaxC= 1.00D-01 BMatC= 1.37D-09 BMatP= 7.61D-09
 IDIUse=1 WtCom= 1.00D+00 WtEn= 0.00D+00
 Coeff-Com: -0.138D-04 0.500D-06-0.541D-06 0.138D-03 0.428D-03 0.174D-02
 Coeff-Com:  0.146D-02-0.313D-02-0.336D-03 0.137D-03 0.247D-01 0.426D+00
 Coeff-Com:  0.549D+00
 Coeff:     -0.138D-04 0.500D-06-0.541D-06 0.138D-03 0.428D-03 0.174D-02
 Coeff:      0.146D-02-0.313D-02-0.336D-03 0.137D-03 0.247D-01 0.426D+00
 Coeff:      0.549D+00
 Gap=     0.149 Goal=   None    Shift=    0.000
 Gap=     0.149 Goal=   None    Shift=    0.000
 RMSDP=4.21D-07 MaxDP=1.66D-05 DE=-2.26D-09 OVMax= 6.13D-06

 Cycle  14  Pass 1  IDiag  1:
 RMSU=  2.43D-07    CP:  6.27D-01  1.02D+00  1.06D+00  7.91D-01  7.23D-01
                    CP:  7.55D-01  6.09D-01  1.21D+00  7.98D-01  6.69D-01
                    CP:  7.10D-01  9.52D-01  7.20D-01
 E= -380.206181784963     Delta-E=       -0.000000000332 Rises=F Damp=F
 DIIS: error= 2.10D-07 at cycle  14 NSaved=  14.
 NSaved=14 IEnMin=14 EnMin= -380.206181784963     IErMin=14 ErrMin= 2.10D-07
 ErrMax= 2.10D-07  0.00D+00 EMaxC= 1.00D-01 BMatC= 9.12D-11 BMatP= 1.37D-09
 IDIUse=1 WtCom= 1.00D+00 WtEn= 0.00D+00
 Coeff-Com: -0.472D-05 0.565D-07-0.287D-05 0.147D-04 0.123D-03 0.454D-03
 Coeff-Com:  0.808D-03-0.972D-03-0.402D-02-0.882D-02-0.108D-01 0.681D-01
 Coeff-Com:  0.211D+00 0.744D+00
 Coeff:     -0.472D-05 0.565D-07-0.287D-05 0.147D-04 0.123D-03 0.454D-03
 Coeff:      0.808D-03-0.972D-03-0.402D-02-0.882D-02-0.108D-01 0.681D-01
 Coeff:      0.211D+00 0.744D+00
 Gap=     0.149 Goal=   None    Shift=    0.000
 Gap=     0.149 Goal=   None    Shift=    0.000
 RMSDP=1.02D-07 MaxDP=6.30D-06 DE=-3.32D-10 OVMax= 1.53D-06

 Cycle  15  Pass 1  IDiag  1:
 RMSU=  5.50D-08    CP:  6.27D-01  1.02D+00  1.06D+00  7.91D-01  7.23D-01
                    CP:  7.55D-01  6.09D-01  1.21D+00  7.98D-01  6.69D-01
                    CP:  7.08D-01  9.63D-01  7.77D-01  8.62D-01
 E= -380.206181784991     Delta-E=       -0.000000000028 Rises=F Damp=F
 DIIS: error= 4.27D-08 at cycle  15 NSaved=  15.
 NSaved=15 IEnMin=15 EnMin= -380.206181784991     IErMin=15 ErrMin= 4.27D-08
 ErrMax= 4.27D-08  0.00D+00 EMaxC= 1.00D-01 BMatC= 3.13D-12 BMatP= 9.12D-11
 IDIUse=1 WtCom= 1.00D+00 WtEn= 0.00D+00
 Coeff-Com: -0.250D-06 0.127D-06-0.906D-06-0.489D-05-0.179D-05-0.516D-05
 Coeff-Com:  0.463D-04 0.159D-03-0.584D-03-0.128D-02-0.270D-02-0.965D-02
 Coeff-Com:  0.229D-02 0.135D+00 0.877D+00
 Coeff:     -0.250D-06 0.127D-06-0.906D-06-0.489D-05-0.179D-05-0.516D-05
 Coeff:      0.463D-04 0.159D-03-0.584D-03-0.128D-02-0.270D-02-0.965D-02
 Coeff:      0.229D-02 0.135D+00 0.877D+00
 Gap=     0.149 Goal=   None    Shift=    0.000
 Gap=     0.149 Goal=   None    Shift=    0.000
 RMSDP=2.26D-08 MaxDP=1.03D-06 DE=-2.84D-11 OVMax= 3.65D-07

 Cycle  16  Pass 1  IDiag  1:
 RMSU=  1.35D-08    CP:  6.27D-01  1.02D+00  1.06D+00  7.91D-01  7.23D-01
                    CP:  7.55D-01  6.09D-01  1.21D+00  7.98D-01  6.69D-01
                    CP:  7.07D-01  9.64D-01  7.82D-01  8.90D-01  1.04D+00
 E= -380.206181784984     Delta-E=        0.000000000007 Rises=F Damp=F
 DIIS: error= 1.86D-08 at cycle  16 NSaved=  16.
 NSaved=16 IEnMin=15 EnMin= -380.206181784991     IErMin=16 ErrMin= 1.86D-08
 ErrMax= 1.86D-08  0.00D+00 EMaxC= 1.00D-01 BMatC= 6.30D-13 BMatP= 3.13D-12
 IDIUse=1 WtCom= 1.00D+00 WtEn= 0.00D+00
 Coeff-Com:  0.112D-06 0.692D-07-0.355D-06-0.243D-05-0.638D-05-0.251D-04
 Coeff-Com: -0.202D-04 0.146D-03-0.508D-04-0.797D-04-0.630D-03-0.950D-02
 Coeff-Com: -0.140D-01 0.187D-01 0.403D+00 0.602D+00
 Coeff:      0.112D-06 0.692D-07-0.355D-06-0.243D-05-0.638D-05-0.251D-04
 Coeff:     -0.202D-04 0.146D-03-0.508D-04-0.797D-04-0.630D-03-0.950D-02
 Coeff:     -0.140D-01 0.187D-01 0.403D+00 0.602D+00
 Gap=     0.149 Goal=   None    Shift=    0.000
 Gap=     0.149 Goal=   None    Shift=    0.000
 RMSDP=6.56D-09 MaxDP=2.05D-07 DE= 7.05D-12 OVMax= 1.16D-07

 SCF Done:  E(UB3LYP) =  -380.206181785     A.U. after   16 cycles
            NFock= 16  Conv=0.66D-08     -V/T= 2.0066
 <Sx>= 0.0000 <Sy>= 0.0000 <Sz>= 0.0000 <S**2>=-0.0000 S=-0.0000
 <L.S>= 0.000000000000E+00
 KE= 3.777006324021D+02 PE=-1.647827836673D+03 EE= 5.009832245902D+02
 Annihilation of the first spin contaminant:
 S**2 before annihilation    -0.0000,   after    -0.0000
 Leave Link  502 at Sun Aug  9 15:50:32 2020, MaxMem=   524288000 cpu:            1335.8 elap:             191.7
 (Enter /home/ubuntu/g16/l601.exe)
 Copying SCF densities to generalized density rwf, IOpCl= 1 IROHF=0.

 **********************************************************************

            Population analysis using the SCF density.

 **********************************************************************

 Orbital symmetries:
 Alpha Orbitals:
       Occupied  (A) (A) (A) (A) (A) (A) (A) (A) (A) (A) (A) (A)
                 (A) (A) (A) (A) (A) (A) (A) (A) (A) (A) (A) (A)
                 (A) (A) (A) (A) (A) (A) (A)
       Virtual   (A) (A) (A) (A) (A) (A) (A) (A) (A) (A) (A) (A)
                 (A) (A) (A) (A) (A) (A) (A) (A) (A) (A) (A) (A)
                 (A) (A) (A) (A) (A) (A) (A) (A) (A) (A) (A) (A)
                 (A) (A) (A) (A) (A) (A) (A) (A) (A) (A) (A) (A)
                 (A) (A) (A) (A) (A) (A) (A) (A) (A) (A) (A) (A)
                 (A) (A) (A) (A) (A) (A) (A) (A) (A) (A) (A) (A)
                 (A) (A) (A) (A) (A) (A) (A) (A) (A) (A) (A) (A)
                 (A) (A) (A) (A) (A) (A) (A) (A) (A) (A) (A) (A)
                 (A) (A) (A) (A) (A) (A) (A) (A) (A) (A) (A) (A)
                 (A) (A) (A) (A) (A) (A) (A) (A) (A) (A) (A) (A)
                 (A) (A) (A) (A) (A) (A) (A) (A) (A) (A) (A) (A)
                 (A) (A) (A) (A) (A) (A) (A) (A) (A) (A) (A) (A)
                 (A) (A) (A) (A) (A) (A) (A) (A) (A) (A) (A) (A)
                 (A) (A) (A) (A) (A) (A) (A) (A) (A) (A) (A) (A)
                 (A) (A) (A) (A) (A) (A) (A) (A) (A) (A) (A) (A)
                 (A) (A) (A) (A) (A) (A) (A) (A) (A) (A) (A) (A)
                 (A) (A) (A) (A) (A) (A) (A) (A) (A) (A) (A) (A)
                 (A) (A) (A) (A) (A) (A) (A) (A) (A) (A) (A) (A)
                 (A) (A) (A) (A) (A) (A) (A) (A) (A) (A) (A) (A)
                 (A) (A) (A) (A) (A) (A) (A) (A) (A) (A) (A)
 Beta  Orbitals:
       Occupied  (A) (A) (A) (A) (A) (A) (A) (A) (A) (A) (A) (A)
                 (A) (A) (A) (A) (A) (A) (A) (A) (A) (A) (A) (A)
                 (A) (A) (A) (A) (A) (A) (A)
       Virtual   (A) (A) (A) (A) (A) (A) (A) (A) (A) (A) (A) (A)
                 (A) (A) (A) (A) (A) (A) (A) (A) (A) (A) (A) (A)
                 (A) (A) (A) (A) (A) (A) (A) (A) (A) (A) (A) (A)
                 (A) (A) (A) (A) (A) (A) (A) (A) (A) (A) (A) (A)
                 (A) (A) (A) (A) (A) (A) (A) (A) (A) (A) (A) (A)
                 (A) (A) (A) (A) (A) (A) (A) (A) (A) (A) (A) (A)
                 (A) (A) (A) (A) (A) (A) (A) (A) (A) (A) (A) (A)
                 (A) (A) (A) (A) (A) (A) (A) (A) (A) (A) (A) (A)
                 (A) (A) (A) (A) (A) (A) (A) (A) (A) (A) (A) (A)
                 (A) (A) (A) (A) (A) (A) (A) (A) (A) (A) (A) (A)
                 (A) (A) (A) (A) (A) (A) (A) (A) (A) (A) (A) (A)
                 (A) (A) (A) (A) (A) (A) (A) (A) (A) (A) (A) (A)
                 (A) (A) (A) (A) (A) (A) (A) (A) (A) (A) (A) (A)
                 (A) (A) (A) (A) (A) (A) (A) (A) (A) (A) (A) (A)
                 (A) (A) (A) (A) (A) (A) (A) (A) (A) (A) (A) (A)
                 (A) (A) (A) (A) (A) (A) (A) (A) (A) (A) (A) (A)
                 (A) (A) (A) (A) (A) (A) (A) (A) (A) (A) (A) (A)
                 (A) (A) (A) (A) (A) (A) (A) (A) (A) (A) (A) (A)
                 (A) (A) (A) (A) (A) (A) (A) (A) (A) (A) (A) (A)
                 (A) (A) (A) (A) (A) (A) (A) (A) (A) (A) (A)
 The electronic state is 1-A.
     Natural Orbital Coefficients:
                           1         2         3         4         5
     Eigenvalues --     2.00000   2.00000   2.00000   2.00000   2.00000
   1 1   C  1S         -0.07055   0.01430   0.14774   0.09306  -0.21134
   2        2S         -0.02454   0.02587  -0.03355  -0.01488  -0.07745
   3        3S         -0.00581   0.01895  -0.02809  -0.04117  -0.03104
   4        4S         -0.75594   0.33821   0.16480   0.14722   0.06761
   5        5PX        -0.14647   0.06771   0.02759   0.04222  -0.00042
   6        5PY        -0.03911   0.03857  -0.03787  -0.02429  -0.02723
   7        5PZ        -0.10408  -0.18062   0.03177   0.03961   0.04170
   8        6PX         0.21211  -0.09228  -0.04131  -0.03356   0.01435
   9        6PY         0.08416  -0.04083   0.01666   0.03067   0.04677
  10        6PZ        -0.04620  -0.08021   0.01403   0.01905   0.01817
  11        7PX        -0.13159   0.07946   0.01102  -0.00094  -0.04271
  12        7PY         0.09584  -0.03212  -0.04165  -0.03142  -0.02100
  13        7PZ        -0.00607  -0.01155  -0.00064  -0.00049  -0.00022
  14        8D 0        0.00378  -0.00238   0.00164   0.00123   0.00311
  15        8D+1       -0.00447  -0.00625   0.00440   0.00427   0.00418
  16        8D-1        0.00405   0.00792   0.00078   0.00020  -0.00065
  17        8D+2       -0.00702   0.00487  -0.00625  -0.00443  -0.00197
  18        8D-2       -0.01248   0.00486   0.00688   0.00512  -0.00673
  19        9D 0       -0.00521   0.00236   0.00140   0.00441  -0.00031
  20        9D+1        0.00266   0.00588   0.00081   0.00067   0.00030
  21        9D-1       -0.00126  -0.00293  -0.00110  -0.00160  -0.00133
  22        9D+2        0.05267  -0.02726   0.00334   0.00412   0.02539
  23        9D-2        0.01958   0.00002  -0.00311  -0.01709  -0.02782
  24 2   C  1S          0.19484  -0.08505  -0.03061   0.00121   0.16634
  25        2S         -0.22764   0.12602  -0.09304  -0.06226  -0.06738
  26        3S         -0.46775   0.25323  -0.12103  -0.12636  -0.13357
  27        4S          1.14671  -0.55446  -0.30497  -0.17498   0.20437
  28        5PX         0.04922  -0.02463  -0.07065  -0.07226   0.02628
  29        5PY        -0.05703   0.01881   0.04622   0.02113  -0.03732
  30        5PZ        -0.09660  -0.14249   0.08002   0.07896   0.07868
  31        6PX         0.01362   0.01871  -0.05144  -0.07919  -0.01686
  32        6PY         0.18661  -0.10063   0.04619   0.05345   0.07858
  33        6PZ        -0.05966  -0.09416   0.03633   0.03385   0.03512
  34        7PX         0.05151  -0.01269  -0.02111  -0.01772   0.01075
  35        7PY        -0.17836   0.08293   0.07277   0.04706  -0.02040
  36        7PZ        -0.00137  -0.00218   0.00078   0.00026   0.00005
  37        8D 0        0.00419  -0.00290   0.00538   0.00322   0.00097
  38        8D+1        0.00225   0.00565   0.00267   0.00203   0.00216
  39        8D-1        0.00528   0.00742  -0.00494  -0.00486  -0.00518
  40        8D+2        0.01118  -0.00501  -0.00323  -0.00320  -0.00181
  41        8D-2       -0.00324   0.00015   0.00996   0.00732  -0.00403
  42        9D 0       -0.00225   0.00139   0.00036  -0.00201  -0.00113
  43        9D+1       -0.00028  -0.00035  -0.00027  -0.00064  -0.00028
  44        9D-1        0.00888   0.01707   0.00203   0.00326   0.00159
  45        9D+2       -0.10578   0.05068   0.00585   0.00336  -0.01511
  46        9D-2        0.03859  -0.02334   0.01355   0.01265   0.00764
  47 3   C  1S         -0.01388   0.02588   0.04416  -0.10250  -0.00811
  48        2S          0.04530  -0.02489   0.08081   0.05637  -0.02130
  49        3S          0.32479  -0.17624   0.08347   0.07016  -0.07191
  50        4S          0.74653  -0.39760  -0.04532  -0.06894   0.00429
  51        5PX         0.01266   0.00980  -0.10672  -0.04640   0.12426
  52        5PY        -0.00193  -0.00990  -0.02214  -0.02676  -0.02700
  53        5PZ        -0.09929  -0.18277   0.00654   0.01755   0.03373
  54        6PX         0.11472  -0.05120  -0.00451  -0.05636  -0.11536
  55        6PY        -0.02382   0.00468   0.00474   0.04070   0.12014
  56        6PZ        -0.04679  -0.08885  -0.00497   0.00052   0.00877
  57        7PX         0.06283  -0.05273   0.06839   0.03710   0.03500
  58        7PY         0.02529   0.01921   0.01723  -0.02322  -0.10029
  59        7PZ         0.00813   0.01438  -0.00039   0.00110  -0.00032
  60        8D 0       -0.00116   0.00086  -0.00386  -0.00477   0.00229
  61        8D+1       -0.00454  -0.00528   0.00468   0.00496   0.00589
  62        8D-1       -0.00361  -0.00656   0.00041   0.00080   0.00015
  63        8D+2       -0.00919   0.00359   0.00939   0.00782  -0.00512
  64        8D-2       -0.00938   0.00348   0.01343   0.00943  -0.01051
  65        9D 0        0.00758  -0.00397   0.00171  -0.00538  -0.00523
  66        9D+1       -0.00290  -0.00356   0.00616   0.00675   0.00703
  67        9D-1       -0.00392  -0.00798  -0.00006   0.00001   0.00005
  68        9D+2       -0.09698   0.04711   0.01691   0.01519   0.02572
  69        9D-2       -0.10401   0.05659   0.00952   0.01685   0.04523
  70 4   C  1S          0.00389  -0.00504   0.05145   0.08716  -0.12273
  71        2S          0.00992   0.02047  -0.18602  -0.10342   0.05703
  72        3S         -0.08102   0.10754  -0.22330  -0.23086   0.03718
  73        4S         -1.12766   0.54604   0.55061   0.29122  -0.21834
  74        5PX         0.17080  -0.09436   0.02737   0.01536   0.01031
  75        5PY         0.09080  -0.05791  -0.01824  -0.05499  -0.05310
  76        5PZ        -0.07197  -0.07665   0.11574   0.10978   0.11483
  77        6PX        -0.08632   0.04485  -0.03750  -0.01654  -0.00478
  78        6PY         0.16834  -0.14045   0.20257   0.23151   0.03967
  79        6PZ        -0.00965   0.01723   0.07476   0.07541   0.07207
  80        7PX         0.23500  -0.10900  -0.10422  -0.04342   0.06149
  81        7PY        -0.06023   0.01543  -0.02188  -0.00801  -0.01115
  82        7PZ         0.00134   0.00551   0.00682   0.00739   0.00680
  83        8D 0        0.00594  -0.00374   0.00490   0.00179  -0.00184
  84        8D+1        0.00507   0.00734  -0.00433  -0.00423  -0.00445
  85        8D-1       -0.00220  -0.00613  -0.00396  -0.00413  -0.00441
  86        8D+2        0.01098  -0.00630   0.00127  -0.00210  -0.00445
  87        8D-2        0.00935  -0.00525   0.00123   0.00330   0.00729
  88        9D 0        0.00093   0.00058  -0.00389  -0.00087   0.00072
  89        9D+1       -0.01064  -0.02220  -0.00643  -0.00847  -0.00586
  90        9D-1       -0.00793  -0.01730  -0.00594  -0.00738  -0.00576
  91        9D+2       -0.05917   0.01950   0.09223   0.08471  -0.00372
  92        9D-2       -0.10341   0.05972   0.01418  -0.02227  -0.04100
  93 5   C  1S         -0.09556   0.06065   0.20899  -0.08418  -0.16342
  94        2S          0.01905  -0.01547  -0.06697   0.03667   0.17820
  95        3S          0.18342  -0.12520  -0.17444   0.06855   0.40772
  96        4S         -0.81570   0.44429   0.26854   0.10267  -0.25907
  97        5PX        -0.08977   0.03189  -0.01731   0.03590   0.06271
  98        5PY        -0.06703   0.05178   0.01187   0.01812   0.02707
  99        5PZ        -0.06061  -0.07868   0.06133   0.06509   0.08440
 100        6PX         0.37581  -0.21709  -0.11107  -0.04855   0.00552
 101        6PY         0.14346  -0.09417  -0.03029   0.02743   0.12554
 102        6PZ        -0.04109  -0.06427   0.01749   0.01677   0.03017
 103        7PX        -0.01150  -0.01476  -0.03478  -0.01155   0.02941
 104        7PY        -0.17588   0.08816   0.07200   0.03914  -0.01522
 105        7PZ        -0.00783  -0.01320   0.00163   0.00105   0.00332
 106        8D 0        0.00069  -0.00047   0.00159  -0.00207  -0.00612
 107        8D+1        0.00264   0.00769   0.00554   0.00515   0.00483
 108        8D-1       -0.00429  -0.00640   0.00318   0.00354   0.00430
 109        8D+2       -0.00607   0.00319   0.00299   0.00568   0.00193
 110        8D-2       -0.00500   0.00242  -0.00675  -0.00196   0.00516
 111        9D 0        0.00087  -0.00021  -0.00348   0.00211   0.00571
 112        9D+1       -0.00387  -0.00817  -0.00339  -0.00470  -0.00388
 113        9D-1        0.00378   0.00722   0.00015   0.00065  -0.00028
 114        9D+2        0.02087  -0.01767  -0.02514  -0.00487   0.04411
 115        9D-2        0.11536  -0.06379   0.00361  -0.00606  -0.03315
 116 6   C  1S          0.06609  -0.04539   0.10561  -0.15957  -0.00759
 117        2S         -0.14082   0.08467  -0.07070   0.04801   0.17470
 118        3S         -0.40277   0.21257   0.13902   0.26763   0.15615
 119        4S          0.72639  -0.37380  -0.22179  -0.14307   0.06565
 120        5PX         0.01995   0.00138   0.03407  -0.01186  -0.06782
 121        5PY        -0.04387   0.04209  -0.05696  -0.04882  -0.01734
 122        5PZ        -0.01853   0.02775   0.12453   0.12636   0.13242
 123        6PX         0.27342  -0.15122  -0.13191  -0.04657   0.11389
 124        6PY         0.05327  -0.08000   0.19850   0.21989   0.00220
 125        6PZ        -0.00749   0.01686   0.06227   0.06239   0.06614
 126        7PX        -0.27095   0.11164   0.25002   0.08822  -0.09971
 127        7PY         0.19299  -0.09494  -0.23848  -0.09334   0.07059
 128        7PZ        -0.00070  -0.00270  -0.00414  -0.00555  -0.00500
 129        8D 0        0.00218  -0.00157   0.00525  -0.00077  -0.00818
 130        8D+1        0.00764   0.01366  -0.00005   0.00052  -0.00150
 131        8D-1       -0.00681  -0.01097   0.00301   0.00201   0.00284
 132        8D+2       -0.00391   0.00040   0.00710   0.00751   0.00340
 133        8D-2        0.00724  -0.00486  -0.00293  -0.00016   0.00443
 134        9D 0       -0.00492   0.00132   0.01334   0.00289  -0.00789
 135        9D+1        0.00443   0.00507  -0.00563  -0.00543  -0.00642
 136        9D-1       -0.03414  -0.06866  -0.01511  -0.02082  -0.01353
 137        9D+2       -0.16101   0.11240  -0.02244  -0.06567  -0.04892
 138        9D-2       -0.09394   0.04021   0.16028   0.07693  -0.09370
 139 7   N  1S         -0.02448   0.04087   0.14877  -0.31447   0.24066
 140        2S          0.05725  -0.03259   0.08202   0.03346  -0.10639
 141        3S          0.06885  -0.05147   0.10698   0.17102  -0.16263
 142        4S         -0.12564   0.04895   0.11331   0.13789  -0.01997
 143        5PX        -0.05418   0.01042   0.17136   0.12981  -0.04408
 144        5PY        -0.03538   0.01397   0.04301  -0.00679  -0.09691
 145        5PZ         0.04183   0.04829  -0.02805  -0.03676  -0.04180
 146        6PX         0.07182  -0.03385   0.01748  -0.06554  -0.03408
 147        6PY         0.01816  -0.00591  -0.00805  -0.05805  -0.05783
 148        6PZ         0.02356   0.02704  -0.01651  -0.02017  -0.02303
 149        7PX         0.02550   0.00187  -0.10945  -0.07756   0.01581
 150        7PY         0.00862   0.00062  -0.03967  -0.02435   0.01831
 151        7PZ        -0.00053  -0.00257  -0.00214  -0.00221  -0.00208
 152        8D 0       -0.00367   0.00182  -0.00191   0.00097   0.00363
 153        8D+1       -0.00759  -0.01326   0.00015   0.00147   0.00274
 154        8D-1       -0.00313  -0.00558  -0.00010   0.00041   0.00087
 155        8D+2        0.00320  -0.00095   0.00153  -0.00262  -0.00520
 156        8D-2        0.00309  -0.00228   0.00374   0.00121  -0.00225
 157        9D 0        0.01504  -0.00699  -0.00454  -0.01109  -0.00544
 158        9D+1       -0.01319  -0.02346   0.00238   0.00382   0.00590
 159        9D-1       -0.00422  -0.00725   0.00149   0.00225   0.00271
 160        9D+2       -0.01261   0.00541   0.00402   0.01547   0.01140
 161        9D-2       -0.01299   0.00586   0.00697   0.00966  -0.00692
 162 8   N  1S          0.03410  -0.03874  -0.36630   0.60330  -0.22659
 163        2S          0.00877  -0.00294  -0.00747  -0.03377  -0.09293
 164        3S          0.07250  -0.02663  -0.00144  -0.20413  -0.09502
 165        4S          0.06653  -0.01075  -0.15461  -0.16692   0.02228
 166        5PX         0.08900  -0.03754  -0.09046  -0.02006   0.05499
 167        5PY         0.02610  -0.00307  -0.05611  -0.05463  -0.03784
 168        5PZ         0.07621   0.12590  -0.00442  -0.02030  -0.03250
 169        6PX         0.06909  -0.02746  -0.05084  -0.08238   0.03467
 170        6PY         0.02334  -0.00435  -0.02720  -0.05564  -0.02319
 171        6PZ         0.03130   0.05425   0.00469  -0.00315  -0.00855
 172        7PX         0.00832  -0.00133  -0.01758  -0.02384   0.00444
 173        7PY         0.00227  -0.00030  -0.00690  -0.01023   0.00006
 174        7PZ         0.00242   0.00562   0.00232   0.00135   0.00086
 175        8D 0       -0.00383   0.00159   0.00355   0.00112   0.00033
 176        8D+1        0.00440   0.00623  -0.00152  -0.00244  -0.00306
 177        8D-1        0.00171   0.00242  -0.00059  -0.00094  -0.00118
 178        8D+2        0.00525  -0.00244  -0.00336   0.00167   0.00388
 179        8D-2        0.00338  -0.00105  -0.00536  -0.00431  -0.00467
 180        9D 0       -0.00271   0.00089   0.00013   0.00830   0.00013
 181        9D+1       -0.00183  -0.00319   0.00100   0.00096   0.00121
 182        9D-1       -0.00107  -0.00201   0.00016   0.00010   0.00025
 183        9D+2        0.00342  -0.00137  -0.00054  -0.00922   0.00425
 184        9D-2        0.00258  -0.00044   0.00012  -0.01095  -0.00279
 185 9   H  1S         -0.17913   0.08756  -0.02030  -0.02358  -0.06204
 186        2S         -0.38122   0.18149   0.02530   0.00766  -0.09560
 187        3S          0.04784  -0.02398  -0.02120  -0.01232   0.00998
 188        4PX         0.00329  -0.00158  -0.00151  -0.00121   0.00204
 189        4PY         0.01269  -0.00661   0.00404   0.00342   0.00502
 190        4PZ        -0.00339  -0.00506   0.00264   0.00257   0.00257
 191        5PX         0.01109  -0.00473  -0.00137   0.00195   0.00287
 192        5PY         0.07865  -0.03682  -0.00892  -0.00583   0.01996
 193        5PZ        -0.00325  -0.00595  -0.00000  -0.00039  -0.00007
 194 10  H  1S          0.16485  -0.08011  -0.08430  -0.05799   0.03034
 195        2S          0.37728  -0.18429  -0.15865  -0.11462   0.06131
 196        3S         -0.04036   0.02014   0.04037   0.01396  -0.02247
 197        4PX        -0.00640   0.00238   0.00885   0.00573  -0.00228
 198        4PY        -0.00194   0.00058   0.00285   0.00072  -0.00270
 199        4PZ        -0.00211  -0.00194   0.00405   0.00388   0.00399
 200        5PX        -0.07578   0.03756   0.02289   0.01467  -0.01330
 201        5PY        -0.03237   0.01557   0.02288   0.02301   0.00024
 202        5PZ         0.00398   0.00900   0.00378   0.00447   0.00340
 203 11  H  1S          0.07611  -0.05433  -0.05521  -0.00207   0.07213
 204        2S          0.17971  -0.12547  -0.08643  -0.01972   0.14156
 205        3S         -0.04519   0.02118   0.01403   0.00397  -0.00536
 206        4PX        -0.00068  -0.00020  -0.00109   0.00109   0.00255
 207        4PY         0.00409  -0.00288  -0.00420   0.00171   0.00750
 208        4PZ        -0.00163  -0.00185   0.00216   0.00233   0.00293
 209        5PX         0.02596  -0.01555   0.00143  -0.00115  -0.00132
 210        5PY         0.04193  -0.02888  -0.01741  -0.00642   0.02680
 211        5PZ         0.00406   0.00814   0.00110   0.00155   0.00094
 212 12  H  1S          0.06723  -0.01021  -0.06698  -0.05462  -0.04367
 213        2S          0.19897  -0.06230  -0.08372  -0.09926  -0.06782
 214        3S         -0.02992   0.01501   0.00639   0.00132   0.00119
 215        4PX        -0.00043   0.00135  -0.00281  -0.00145  -0.00339
 216        4PY        -0.00368   0.00125   0.00225   0.00150   0.00193
 217        4PZ        -0.00346  -0.00605   0.00097   0.00125   0.00128
 218        5PX         0.05062  -0.01956  -0.01291  -0.01748  -0.00671
 219        5PY        -0.02170   0.00540   0.01450   0.01559   0.01232
 220        5PZ         0.00093   0.00178  -0.00007   0.00009  -0.00032
 221 13  C  1S         -0.04314   0.04346   0.35571  -0.35906  -0.01890
 222        2S          0.01584  -0.00449  -0.01251  -0.01122   0.07483
 223        3S         -0.07767   0.01903   0.16928   0.14546  -0.08090
 224        4S          0.17106  -0.05451  -0.37510  -0.11395   0.14192
 225        5PX        -0.03167   0.00773   0.01039  -0.01408  -0.03378
 226        5PY        -0.12901   0.06407   0.04918   0.05040  -0.00813
 227        5PZ         0.14615   0.30766   0.09280   0.11765   0.08527
 228        6PX         0.10780  -0.04654  -0.15668  -0.08434   0.07805
 229        6PY        -0.00359  -0.01346   0.10829   0.07330  -0.04234
 230        6PZ        -0.00238   0.00092   0.01014   0.01027   0.01074
 231        7PX        -0.00987   0.00240   0.04856   0.01094  -0.02375
 232        7PY         0.02003  -0.00508  -0.04119  -0.01433   0.00953
 233        7PZ        -0.00858  -0.01684  -0.00263  -0.00373  -0.00185
 234        8D 0        0.00669  -0.00323  -0.00116  -0.00312  -0.00197
 235        8D+1       -0.00077  -0.00377  -0.00476  -0.00502  -0.00494
 236        8D-1       -0.00717  -0.01288   0.00007  -0.00105   0.00064
 237        8D+2       -0.00270   0.00065   0.00213   0.00309   0.00206
 238        8D-2        0.00186  -0.00169   0.00186  -0.00223  -0.00480
 239        9D 0       -0.01769   0.00831  -0.00033   0.00178  -0.00011
 240        9D+1        0.01940   0.03742   0.00530   0.00832   0.00405
 241        9D-1        0.02249   0.04805   0.01500   0.01886   0.01373
 242        9D+2       -0.03266   0.02074   0.01622   0.00220  -0.01773
 243        9D-2        0.02193  -0.00588  -0.03927  -0.02310   0.01780
 244 14  H  1S          0.18295   0.18664   0.01940   0.05123   0.09207
 245        2S          0.14026   0.20084   0.09143   0.06324   0.01172
 246        3S          0.03153   0.01360  -0.01015  -0.00022   0.00441
 247        4PX        -0.00206  -0.00067   0.00032  -0.00022  -0.00068
 248        4PY         0.00425   0.00980   0.00176   0.00417   0.00520
 249        4PZ        -0.00585  -0.00021   0.00207  -0.00040  -0.00489
 250        5PX        -0.00273  -0.01066  -0.00261  -0.00250   0.00044
 251        5PY         0.01715   0.01205   0.00616   0.00159   0.00086
 252        5PZ        -0.01517  -0.03080  -0.02013  -0.01126   0.00210
 253 15  H  1S         -0.03214  -0.25689  -0.09689  -0.10143  -0.01221
 254        2S         -0.07589  -0.23065   0.00332  -0.06056  -0.06269
 255        3S          0.00980  -0.03008  -0.01996  -0.01398  -0.00395
 256        4PX        -0.00084   0.00160   0.00050   0.00014  -0.00051
 257        4PY        -0.00480  -0.00933  -0.00402  -0.00313  -0.00009
 258        4PZ         0.00368  -0.00467  -0.00404  -0.00197   0.00300
 259        5PX         0.00682   0.00783   0.00026   0.00178   0.00276
 260        5PY         0.00076  -0.01984   0.00116  -0.00596  -0.00296
 261        5PZ        -0.01534  -0.03007   0.00770  -0.00613  -0.01250
 262 16  H  1S         -0.07291   0.02906   0.01917   0.01604   0.00907
 263        2S         -0.14412   0.05433   0.10945   0.05656  -0.03020
 264        3S         -0.00939   0.00265  -0.01588  -0.00210   0.01339
 265        4PX         0.00282  -0.00133   0.00105  -0.00132  -0.00348
 266        4PY        -0.00196   0.00107   0.00192   0.00099  -0.00176
 267        4PZ         0.00433   0.00916   0.00282   0.00355   0.00258
 268        5PX         0.03077  -0.01333  -0.01806  -0.00772   0.00328
 269        5PY        -0.00339   0.00458  -0.00421  -0.00206  -0.00256
 270        5PZ        -0.00738  -0.01431  -0.00235  -0.00357  -0.00204
                           6         7         8         9        10
     Eigenvalues --     2.00000   2.00000   2.00000   2.00000   2.00000
   1 1   C  1S          0.03853   0.09349   0.02134   0.07653   0.03590
   2        2S          0.03764   0.04382  -0.06985   0.04014   0.03853
   3        3S         -0.01700   0.07913  -0.10342   0.04914  -0.03742
   4        4S         -0.16301   0.02458   0.13598  -0.24664  -0.00075
   5        5PX        -0.02797   0.09185  -0.02819  -0.05522  -0.13249
   6        5PY        -0.01398  -0.05285  -0.10167   0.03611  -0.10497
   7        5PZ         0.09856  -0.00815   0.03896   0.03412  -0.00360
   8        6PX        -0.04778   0.01844  -0.19069   0.06822  -0.00584
   9        6PY        -0.09181  -0.04814  -0.11537   0.03729  -0.04172
  10        6PZ         0.04916  -0.00364   0.02848   0.01302   0.00425
  11        7PX        -0.04745   0.02463  -0.10810   0.00179  -0.03337
  12        7PY         0.01414   0.10980  -0.09888   0.03207  -0.04801
  13        7PZ         0.00178  -0.00027   0.00361   0.00009   0.00099
  14        8D 0       -0.00163   0.00013   0.00282  -0.00147  -0.00263
  15        8D+1        0.00688  -0.00155  -0.00059   0.00179   0.00050
  16        8D-1       -0.00093  -0.00098   0.00066  -0.00196   0.00223
  17        8D+2        0.00396   0.00353  -0.00805   0.00186  -0.01371
  18        8D-2       -0.00043   0.00073   0.00582  -0.00923   0.00627
  19        9D 0       -0.00217   0.00568   0.00571  -0.00063   0.00101
  20        9D+1       -0.00088  -0.00051  -0.00049  -0.00277   0.00419
  21        9D-1       -0.00194  -0.00018   0.00009  -0.00017  -0.00073
  22        9D+2       -0.02896  -0.00606  -0.02388   0.01953   0.02891
  23        9D-2       -0.00253  -0.07045  -0.03550   0.05095   0.00130
  24 2   C  1S          0.02620  -0.06235  -0.07385  -0.12050   0.11654
  25        2S          0.10466  -0.01107  -0.06008  -0.00093  -0.00441
  26        3S          0.12842   0.00674  -0.09662   0.05012  -0.13840
  27        4S          0.21633   0.36648  -0.14847   0.21041  -0.13293
  28        5PX         0.07833  -0.06096   0.03328   0.03987   0.07329
  29        5PY         0.00368  -0.10586   0.08452  -0.03770   0.16627
  30        5PZ         0.13358  -0.02750  -0.00504   0.03740   0.00630
  31        6PX        -0.06485  -0.06119  -0.21319   0.14482  -0.00822
  32        6PY        -0.05275   0.14460   0.06061  -0.03508   0.00252
  33        6PZ         0.06191  -0.01510  -0.00008   0.01821   0.00171
  34        7PX        -0.01780   0.14804  -0.09320   0.01952  -0.06412
  35        7PY        -0.05066  -0.10303   0.05593  -0.03559   0.01106
  36        7PZ         0.00075  -0.00106   0.00110  -0.00060   0.00121
  37        8D 0       -0.00384   0.00051   0.00273  -0.00121  -0.00130
  38        8D+1        0.00028  -0.00081  -0.00529   0.00006   0.00003
  39        8D-1       -0.00726   0.00137   0.00269  -0.00250   0.00024
  40        8D+2        0.00524   0.00531  -0.00646   0.00351  -0.00783
  41        8D-2       -0.00464   0.00464   0.00279  -0.00557   0.00222
  42        9D 0        0.00082  -0.00679  -0.00589  -0.00116  -0.00404
  43        9D+1       -0.00185  -0.00013  -0.00171  -0.00091   0.00077
  44        9D-1        0.00369   0.00063   0.00153   0.00051   0.00030
  45        9D+2        0.01392   0.03123   0.05362  -0.02834   0.05261
  46        9D-2        0.01585   0.01692   0.05002  -0.01720  -0.00479
  47 3   C  1S          0.07468   0.02729   0.01881  -0.02303  -0.07546
  48        2S         -0.09724  -0.02980  -0.02769   0.01631   0.09072
  49        3S         -0.14066  -0.11880  -0.26255   0.01137   0.18480
  50        4S          0.33195  -0.07909   0.49882   0.02347   0.04153
  51        5PX        -0.03014   0.00859  -0.08180   0.12143  -0.05630
  52        5PY         0.11799   0.06428   0.10839  -0.04534   0.12846
  53        5PZ         0.05359   0.01241  -0.01657   0.05043  -0.04628
  54        6PX         0.01205   0.12224  -0.32054   0.00778   0.07726
  55        6PY        -0.05730   0.07651   0.05212   0.02115  -0.01141
  56        6PZ         0.01421   0.00787  -0.00299   0.01740  -0.01604
  57        7PX         0.00036  -0.08819   0.19489  -0.00078   0.03314
  58        7PY        -0.06664   0.00475  -0.19150   0.09964  -0.01983
  59        7PZ         0.00175   0.00161   0.00310   0.00100  -0.00139
  60        8D 0        0.00467  -0.00175  -0.00024   0.00328  -0.00355
  61        8D+1        0.00520  -0.00068  -0.00562   0.00023   0.00325
  62        8D-1        0.00380  -0.00070   0.00620  -0.00066   0.00286
  63        8D+2       -0.00685  -0.00651   0.00233  -0.01203   0.00071
  64        8D-2       -0.01187   0.00250  -0.00644  -0.01121  -0.00680
  65        9D 0        0.00093  -0.00089  -0.01919   0.00015   0.00298
  66        9D+1        0.01079  -0.00017  -0.00551   0.00864  -0.00908
  67        9D-1        0.00276  -0.00018   0.00252   0.00264  -0.00320
  68        9D+2       -0.01959   0.02808   0.09394   0.01132  -0.03045
  69        9D-2       -0.02404  -0.09061   0.10347   0.04703  -0.06587
  70 4   C  1S         -0.03185   0.06015   0.11423   0.06628  -0.42482
  71        2S          0.09325   0.00458  -0.03622   0.07044   0.00310
  72        3S          0.06963   0.11886  -0.14665   0.20744   0.04368
  73        4S         -0.47748  -0.23385   0.16322  -0.13788   0.06036
  74        5PX         0.01474   0.02424   0.02362  -0.00556   0.06062
  75        5PY         0.12146   0.02460  -0.03174   0.01194  -0.03388
  76        5PZ         0.14156  -0.03239  -0.08892   0.04700  -0.00302
  77        6PX        -0.04260  -0.22425  -0.08511   0.01840   0.00121
  78        6PY        -0.04583   0.05080   0.24768  -0.21840  -0.02283
  79        6PZ         0.09566  -0.01691  -0.04526   0.02912  -0.00084
  80        7PX         0.04957   0.09759  -0.07362   0.03623  -0.02636
  81        7PY         0.06841  -0.14331   0.09333  -0.02934   0.07587
  82        7PZ         0.00950  -0.00086  -0.00401   0.00370  -0.00160
  83        8D 0       -0.00075  -0.00083   0.00144  -0.00086  -0.00063
  84        8D+1       -0.00663   0.00133   0.00173  -0.00217   0.00007
  85        8D-1       -0.00323   0.00011   0.00670  -0.00180   0.00111
  86        8D+2        0.00695   0.00781  -0.00259  -0.00073  -0.01033
  87        8D-2       -0.00433   0.00182   0.00891  -0.00559   0.00275
  88        9D 0       -0.00142   0.00663  -0.00130   0.00565   0.00036
  89        9D+1       -0.01112  -0.00005  -0.00192  -0.00214  -0.00107
  90        9D-1       -0.00881  -0.00015   0.00166  -0.00243   0.00014
  91        9D+2       -0.06843   0.07925   0.07482  -0.06609   0.00565
  92        9D-2       -0.01681   0.03644  -0.04458   0.04152  -0.00656
  93 5   C  1S         -0.00218   0.04780  -0.11958   0.14979   0.30270
  94        2S         -0.03595   0.09917   0.11218  -0.01707   0.06258
  95        3S         -0.01779  -0.43936   0.35430  -0.12872  -0.08255
  96        4S         -0.39103  -0.22800  -0.29911  -0.01134  -0.08642
  97        5PX        -0.00287   0.01910   0.12331  -0.14600   0.05330
  98        5PY        -0.17136  -0.14672  -0.15427   0.04036  -0.03928
  99        5PZ         0.07058   0.00029  -0.11675   0.04925  -0.03327
 100        6PX         0.13475  -0.07558  -0.07562  -0.17855   0.16497
 101        6PY         0.07989  -0.15500   0.25581  -0.05116   0.00035
 102        6PZ         0.01258   0.00109  -0.05962   0.01704  -0.01377
 103        7PX         0.11323  -0.07430   0.17132  -0.09991   0.05331
 104        7PY        -0.09427   0.07704  -0.02007  -0.00737  -0.01919
 105        7PZ         0.00013  -0.00016  -0.00865   0.00208  -0.00215
 106        8D 0        0.00471   0.00038  -0.00110  -0.00049  -0.00161
 107        8D+1        0.00455  -0.00144  -0.00556   0.00079   0.00085
 108        8D-1        0.00510  -0.00011  -0.00385   0.00300  -0.00187
 109        8D+2       -0.01056  -0.00782  -0.00690  -0.00241  -0.00297
 110        8D-2        0.00637   0.00369   0.01254  -0.00768   0.00405
 111        9D 0       -0.00155  -0.00484   0.00100   0.00103  -0.00060
 112        9D+1       -0.00690  -0.00071   0.00085  -0.00393   0.00341
 113        9D-1        0.00051  -0.00005   0.00280  -0.00205   0.00341
 114        9D+2        0.02263   0.11290   0.03343  -0.00428   0.01786
 115        9D-2        0.02226  -0.06506  -0.05277  -0.01774   0.02084
 116 6   C  1S          0.08054   0.06511   0.03969  -0.01408  -0.23553
 117        2S         -0.13638  -0.01859   0.00695  -0.01235   0.03773
 118        3S         -0.34368  -0.00912   0.18318  -0.09271  -0.02386
 119        4S          0.31863   0.25339  -0.03432   0.13448   0.00207
 120        5PX        -0.00524   0.00104  -0.14099   0.12336  -0.03545
 121        5PY         0.01843  -0.01108   0.01335   0.02395   0.02501
 122        5PZ         0.14054  -0.01928  -0.13579   0.05675  -0.01741
 123        6PX         0.08173  -0.16486   0.03630  -0.07341   0.08127
 124        6PY        -0.05691   0.18246   0.20238  -0.21842   0.00839
 125        6PZ         0.06734  -0.00954  -0.07375   0.02996  -0.01285
 126        7PX        -0.12348  -0.08218   0.18504  -0.03628  -0.00244
 127        7PY         0.20861  -0.17353  -0.00224  -0.03117   0.05455
 128        7PZ        -0.00885  -0.00047   0.00075  -0.00467   0.00346
 129        8D 0        0.00330  -0.00337   0.00035  -0.00007  -0.00268
 130        8D+1        0.00118  -0.00010   0.00592  -0.00143   0.00192
 131        8D-1        0.00294  -0.00173  -0.00317   0.00102   0.00012
 132        8D+2       -0.00816   0.01318   0.00183  -0.00614   0.00039
 133        8D-2        0.00885   0.01126   0.01731  -0.00776   0.00407
 134        9D 0       -0.00174  -0.01943   0.01113  -0.00717  -0.00709
 135        9D+1       -0.00609   0.00076   0.00787  -0.00311   0.00147
 136        9D-1       -0.02643  -0.00160  -0.00436  -0.00655   0.00056
 137        9D+2       -0.04304   0.20935  -0.14092   0.11401   0.00351
 138        9D-2       -0.03178   0.16181   0.05652   0.00696  -0.03943
 139 7   N  1S          0.12812  -0.09523   0.10476  -0.34703  -0.41367
 140        2S         -0.05264   0.11859  -0.18667  -0.11915   0.01057
 141        3S         -0.13403   0.09457  -0.13287  -0.06259   0.05993
 142        4S         -0.16854  -0.03595   0.04223   0.02007   0.03824
 143        5PX        -0.15420  -0.12336   0.13729  -0.07424   0.01164
 144        5PY         0.13322  -0.09226   0.13287  -0.01469   0.07460
 145        5PZ        -0.03632   0.00345   0.00941   0.03741  -0.09311
 146        6PX         0.00914   0.08945  -0.18865  -0.07389   0.02782
 147        6PY         0.11255  -0.00689  -0.03118  -0.01620   0.03904
 148        6PZ        -0.01901   0.00322   0.00713   0.02112  -0.05141
 149        7PX         0.05208   0.08603  -0.19937   0.00125  -0.01146
 150        7PY         0.01249   0.02650  -0.07039   0.00585  -0.02659
 151        7PZ        -0.00168   0.00058   0.00139   0.00151  -0.00357
 152        8D 0       -0.00026  -0.00317   0.00702   0.00330  -0.00270
 153        8D+1        0.00326   0.00118  -0.00033   0.00054   0.00209
 154        8D-1        0.00126   0.00043   0.00038   0.00014   0.00090
 155        8D+2        0.00271  -0.00043  -0.00993  -0.00079   0.00004
 156        8D-2       -0.00355   0.00622  -0.00466  -0.00789   0.00484
 157        9D 0        0.00977   0.01546  -0.02695  -0.00955   0.00224
 158        9D+1        0.00874   0.00122  -0.00315   0.00673  -0.00536
 159        9D-1        0.00466   0.00043  -0.00037   0.00275  -0.00183
 160        9D+2       -0.01523  -0.01124   0.02553   0.01148  -0.00844
 161        9D-2       -0.00511  -0.01277   0.02331   0.00492   0.01153
 162 8   N  1S         -0.00960   0.01878   0.20999   0.26168  -0.22681
 163        2S          0.07804   0.02598  -0.09540  -0.11062   0.01624
 164        3S          0.18303   0.05757  -0.24280  -0.19697   0.05710
 165        4S          0.14237   0.07775  -0.23905  -0.02150  -0.02532
 166        5PX        -0.04696   0.19446  -0.21060   0.05117  -0.02668
 167        5PY         0.11645   0.02393  -0.06029   0.06105   0.00003
 168        5PZ        -0.03312  -0.01110  -0.00221   0.01681  -0.06123
 169        6PX         0.02530   0.10723  -0.15894  -0.00193   0.00050
 170        6PY         0.06912   0.01468  -0.06236   0.02045   0.00981
 171        6PZ        -0.00748  -0.00720  -0.00617   0.01009  -0.02803
 172        7PX         0.02099   0.00639  -0.02106  -0.00228  -0.00431
 173        7PY         0.01077   0.00322  -0.00771  -0.00191   0.00245
 174        7PZ         0.00027  -0.00153  -0.00198  -0.00085   0.00108
 175        8D 0       -0.00018  -0.00796   0.00987  -0.00119   0.00043
 176        8D+1       -0.00281  -0.00017   0.00038   0.00239  -0.00652
 177        8D-1       -0.00107  -0.00007   0.00017   0.00092  -0.00251
 178        8D+2       -0.00942   0.01257  -0.01558   0.00039  -0.00342
 179        8D-2        0.01020   0.00668  -0.00794   0.00293   0.00214
 180        9D 0       -0.00423  -0.00497   0.01057   0.00452  -0.00184
 181        9D+1        0.00193  -0.00013  -0.00119   0.00201  -0.00236
 182        9D-1        0.00047  -0.00006  -0.00030   0.00070  -0.00090
 183        9D+2        0.00300   0.00535  -0.01055  -0.00457  -0.00092
 184        9D-2        0.00694   0.00212  -0.01115  -0.00349   0.00499
 185 9   H  1S          0.06499  -0.09935   0.05265  -0.02694   0.14864
 186        2S          0.04234  -0.15593   0.12201  -0.07638   0.22455
 187        3S          0.01566   0.02830  -0.00373   0.00484   0.01650
 188        4PX         0.00046  -0.00046   0.00005   0.00136  -0.00010
 189        4PY        -0.00677   0.00455  -0.00025   0.00021  -0.00523
 190        4PZ         0.00440  -0.00096  -0.00009   0.00118   0.00030
 191        5PX        -0.00767   0.00067  -0.01626   0.00286  -0.01480
 192        5PY        -0.00584   0.03730  -0.02753   0.01799  -0.04854
 193        5PZ         0.00009  -0.00055   0.00041  -0.00020   0.00050
 194 10  H  1S          0.09326   0.03921  -0.01071   0.02544   0.03841
 195        2S          0.18187   0.04382  -0.03131   0.04222  -0.01504
 196        3S         -0.02080  -0.00553   0.00866   0.00052  -0.01309
 197        4PX        -0.00692  -0.00074   0.00286  -0.00348  -0.00277
 198        4PY        -0.00026  -0.00116  -0.00070  -0.00041  -0.00339
 199        4PZ         0.00498  -0.00110  -0.00297   0.00161  -0.00006
 200        5PX        -0.02763  -0.01788   0.00293  -0.00158   0.01073
 201        5PY        -0.03159   0.00998   0.00833  -0.01255  -0.00050
 202        5PZ         0.00567  -0.00039  -0.00011   0.00106   0.00069
 203 11  H  1S          0.12708   0.17423   0.18311  -0.02682   0.06182
 204        2S          0.22591   0.21727   0.35939  -0.06395   0.11189
 205        3S         -0.00589   0.02483   0.01666  -0.00528   0.00523
 206        4PX         0.00183   0.00131   0.00601  -0.00386   0.00195
 207        4PY         0.00396   0.01066   0.00948  -0.00161   0.00333
 208        4PZ         0.00245   0.00004  -0.00404   0.00167  -0.00112
 209        5PX         0.01243   0.00361   0.00606   0.00177   0.00543
 210        5PY         0.05308   0.03763   0.08249  -0.01664   0.03029
 211        5PZ         0.00106   0.00018  -0.00023  -0.00059   0.00136
 212 12  H  1S          0.02406  -0.06381  -0.08922   0.08695   0.03535
 213        2S          0.03042  -0.14155  -0.15591   0.16727   0.00167
 214        3S         -0.00904  -0.01697  -0.00091   0.00119  -0.00343
 215        4PX         0.00055  -0.00092  -0.00531   0.00254   0.00040
 216        4PY        -0.00184   0.00097   0.00143  -0.00234  -0.00554
 217        4PZ         0.00327  -0.00027   0.00158   0.00108  -0.00004
 218        5PX         0.00243  -0.02619  -0.02773   0.03232   0.00586
 219        5PY        -0.00936   0.01627   0.02360  -0.01887   0.01099
 220        5PZ         0.00027  -0.00012   0.00190  -0.00109   0.00183
 221 13  C  1S         -0.07771   0.11381   0.30601   0.59787  -0.08495
 222        2S         -0.08959   0.03192  -0.11247   0.06748   0.08152
 223        3S         -0.04431   0.17497   0.00595  -0.04052  -0.03686
 224        4S          0.15139  -0.18691  -0.19822   0.00436   0.07266
 225        5PX         0.04824   0.23383   0.06329  -0.07430   0.05851
 226        5PY        -0.03209   0.24221  -0.01796  -0.00674  -0.02960
 227        5PZ         0.14585  -0.00068   0.00017   0.03329   0.00603
 228        6PX         0.07363  -0.19530   0.02715  -0.01820   0.04648
 229        6PY        -0.01873  -0.01076   0.02874  -0.01167  -0.04986
 230        6PZ         0.01156  -0.00178  -0.01017   0.00386  -0.00001
 231        7PX        -0.01498   0.00673   0.02609   0.00160  -0.01860
 232        7PY         0.01551  -0.03379  -0.03428   0.00745   0.00983
 233        7PZ        -0.00435  -0.00003  -0.00242   0.00046  -0.00222
 234        8D 0        0.00281  -0.01144   0.00034   0.00125  -0.00032
 235        8D+1       -0.00561   0.00055   0.00449  -0.00206   0.00052
 236        8D-1       -0.00194  -0.00075  -0.00479   0.00037  -0.00083
 237        8D+2       -0.00221   0.00839   0.00175  -0.00349   0.00004
 238        8D-2        0.00509   0.00905   0.00396  -0.00366   0.00114
 239        9D 0        0.00519   0.05128   0.00693  -0.00626   0.00128
 240        9D+1        0.01112   0.00144   0.00596   0.00229  -0.00012
 241        9D-1        0.02330   0.00013  -0.00023   0.00516   0.00122
 242        9D+2       -0.02129   0.06613  -0.03184   0.01509  -0.00324
 243        9D-2        0.00970  -0.06709  -0.00724   0.00980   0.00537
 244 14  H  1S          0.07067  -0.11788  -0.04099   0.04872   0.06021
 245        2S          0.04410  -0.10475   0.00676   0.05367  -0.00369
 246        3S          0.01864  -0.01497  -0.01258   0.00844   0.00012
 247        4PX         0.00040   0.00764   0.00112  -0.00246   0.00188
[...]
   yx         0.748597D+01      0.110931D+01      0.123427D+01
   yy         0.994654D+02      0.147393D+02      0.163996D+02
   zx         0.169338D-02      0.250933D-03      0.279200D-03
   zy         0.449017D-04      0.665374D-05      0.740329D-05
   zz         0.518777D+02      0.768748D+01      0.855348D+01

 ----------------------------------------------------------------------

 Dipole orientation:
     6          0.22757167          2.54058634          1.68106538
     6          0.32574948          3.63026831         -0.70251655
     6         -0.01047285         -0.11278666          1.75050656
     6          0.19052186          2.11865534         -2.87756442
     6         -0.15025388         -1.67534237         -0.40174882
     6         -0.04744516         -0.53441960         -2.77976920
     7         -0.11421382         -1.26377083          4.09267261
     7         -0.19769249         -2.19027920          5.98168765
     1          0.50897306          5.67279078         -0.87669299
     1          0.27299646          3.03513261         -4.72122697
     1         -0.33332666         -3.71546859         -0.19466661
     1          0.32685932          3.65132083          3.40908946
     6         -0.18822367         -2.11200760         -5.14748589
     1          1.37268871         -3.47965064         -5.21638219
     1         -1.96371234         -3.18663245         -5.21347773
     1         -0.08566985         -0.92868281         -6.84235421

 Electric dipole moment (dipole orientation):
 (Debye = 10**-18 statcoulomb cm , SI units = C m)
                  (au)            (Debye)         (10**-30 SI)
   Tot        0.567766D+00      0.144312D+01      0.481372D+01
   x          0.000000D+00      0.000000D+00      0.000000D+00
   y          0.000000D+00      0.000000D+00      0.000000D+00
   z          0.567766D+00      0.144312D+01      0.481372D+01

 Dipole polarizability, Alpha (dipole orientation).
 (esu units = cm**3 , SI units = C**2 m**2 J**-1)
 Alpha(0;0):
               (au)            (10**-24 esu)      (10**-40 SI)
   iso        0.968260D+02      0.143481D+02      0.159644D+02
   aniso      0.767734D+02      0.113766D+02      0.126582D+02
   xx         0.522708D+02      0.774573D+01      0.861829D+01
   yx         0.438169D+01      0.649299D+00      0.722443D+00
   yy         0.100720D+03      0.149252D+02      0.166065D+02
   zx        -0.993006D+00     -0.147148D+00     -0.163725D+00
   zy        -0.108496D+02     -0.160774D+01     -0.178885D+01
   zz         0.137487D+03      0.203734D+02      0.226685D+02

 ----------------------------------------------------------------------
 1\1\GINC-LC06-SRV\Freq\UB3LYP\Aug-CC-pVDZ\C7H7N2(1+)\UBUNTU\09-Aug-202
 0\0\\#P Geom=AllCheck Guess=TCheck SCRF=Check GenChk UB3LYP/Aug-CC-pVD
 Z Freq\\3-MePhN2+_UB3LYP-aug-cc-pVDZ\\1,1\C,-0.76549,1.42385,0.00008\C
 ,0.54251,1.88787,0.00006\C,-0.92798,0.02302,0.00001\C,1.61718,0.98519,
 -0.00003\C,0.13226,-0.90554,-0.00007\C,1.43976,-0.41414,-0.00007\N,-2.
 21706,-0.4754,-0.00001\N,-3.25665,-0.87644,-0.00001\H,0.73122,2.9605,0
 .00009\H,2.63239,1.38306,-0.00008\H,-0.07368,-1.97535,-0.00013\H,-1.62
 357,2.09327,0.00012\C,2.61285,-1.36082,0.00001\H,2.59157,-2.00858,0.88
 733\H,2.58937,-2.01162,-0.88501\H,3.56228,-0.81489,-0.00205\\Version=E
 S64L-G16RevA.03\State=1-A\HF=-380.2061818\S2=0.\S2-1=0.\S2A=0.\RMSD=8.
 140e-09\RMSF=1.989e-05\ZeroPoint=0.1255414\Thermal=0.1327346\Dipole=-0
 .5654975,0.0507015,0.0001226\DipoleDeriv=0.2329623,-0.035965,-0.000032
 2,0.4945712,0.0422238,-0.000006,0.0000124,-0.0000044,-0.0181816,-0.434
 8133,0.1338141,0.0000288,0.1088315,0.1461397,-0.0000167,-0.000003,0.00
 00303,-0.0623923,-0.9015115,-0.4263927,0.0000091,-0.4521019,0.099552,0
 .0000203,-0.0000124,0.0000322,0.054278,0.2256411,0.0552004,-0.000016,0
 .1520443,0.1357371,0.0000543,0.0000052,0.0000236,0.0048938,0.282943,0.
 4636428,-0.0000286,-0.1901156,-0.0403225,-0.0000062,-0.0000564,-0.0000
 509,-0.0197436,0.178497,-0.5723866,0.0001176,-0.5629236,-0.1080041,-0.
 0001381,0.0003323,-0.0002047,-0.020032,1.8099096,0.5987603,0.0000283,0
 .6793903,0.3568217,0.0000025,-0.0000061,-0.0000198,0.2540494,-0.723362
 7,-0.2803473,-0.0000131,-0.3189523,-0.0302304,-0.0000045,0.0000086,0.0
 000044,0.0821463,0.0802068,0.0005103,0.0000051,0.0077621,0.0627819,-0.
 0000046,0.0000164,-0.0000044,0.1370573,0.0410588,-0.0105763,0.0000114,
 -0.0004154,0.100398,-0.0000064,0.0000191,0.0000027,0.1204916,0.0754979
 ,-0.0164006,0.0000077,-0.0098329,0.0728879,-0.0000094,0.0000006,-0.000
 0231,0.14157,0.0626903,-0.0053523,0.0000027,-0.0169727,0.1136574,-0.00
 00031,-0.0000001,0.0000014,0.1537594,0.0528991,0.0547901,-0.0000968,0.
 1527114,-0.0803042,0.0001232,-0.0008163,0.0006118,0.0586287,0.0134392,
 0.0249627,0.0373897,0.0159014,0.0633703,0.0467525,0.0146748,0.0581997,
 0.0115945,0.0133086,0.0245249,-0.0375675,0.015614,0.0630028,-0.0469587
 ,-0.0144968,-0.0586165,0.012012,-0.0093662,-0.0087848,0.0001538,-0.075
 5117,0.0022885,0.000201,0.0003219,0.0000179,0.0898685\Polar=139.134835
 ,7.485974,99.4654241,0.0016934,0.0000449,51.8777162\Quadrupole=8.51168
 98,1.511323,-10.0230128,0.2511049,0.0003624,0.0001165\PG=C01 [X(C7H7N2
 )]\NImag=1\\0.74096441,-0.05256095,0.66408785,-0.00001573,0.00002553,0
 .12701578,-0.33010232,-0.04791755,0.00000373,0.66894889,-0.10700949,-0
 .15164565,0.00000102,0.03064349,0.74211905,0.00000381,-0.00000171,-0.0
 6305010,-0.00001918,0.00002336,0.13498145,-0.08510723,-0.00475552,-0.0
 0000016,-0.01008786,-0.03033377,-0.00000102,0.53760852,0.02761594,-0.3
 0525709,-0.00001277,-0.07239880,-0.01202087,0.00000194,-0.05359866,0.6
 5876833,0.00000189,-0.00001335,-0.05449382,-0.00000357,-0.00000176,0.0
 0676814,-0.00001235,0.00003127,0.11642117,-0.05378276,0.00043874,0.000
 00185,-0.24436083,0.13055968,0.00001339,-0.00821449,0.01681657,0.00000
 264,0.72911324,0.03769488,0.05597762,0.00000032,0.06713257,-0.21481916
 ,-0.00001105,0.01409106,-0.04308299,-0.00000243,0.01816781,0.65732067,
 0.00000499,0.00000503,0.00592442,0.00000787,-0.00001143,-0.06483084,0.
 00000182,-0.00000574,-0.00533519,-0.00002978,0.00001014,0.14731149,0.0
 2948865,0.04629552,0.00000583,-0.04882789,0.00286277,-0.00000159,-0.17
 635418,0.09265743,0.00000477,0.01292950,-0.06901214,-0.00000175,0.6534
 2575,0.01601436,-0.04005382,-0.00000356,0.01422795,-0.00151142,0.00000
 012,0.12528533,-0.21780875,-0.00001253,-0.03878068,-0.01083121,0.00000
 158,0.02571344,0.73991581,-0.00000148,-0.00000528,0.01147336,0.0000052
 7,0.00000001,-0.00339105,0.00000641,-0.00000896,-0.05120424,-0.0000050
 4,0.00000467,0.00439096,0.00000689,0.00003466,0.12475523,-0.01780727,-
 0.03228305,-0.00000379,0.04624314,0.02242377,-0.00000126,-0.05814089,0
 .02870886,0.00000203,-0.13028483,0.00613824,0.00000205,-0.30228295,-0.
 09826237,-0.00000960,0.65316063,-0.02532022,-0.03277987,0.00000025,0.0
 5305349,-0.03357287,-0.00000516,-0.01288349,0.04164150,0.00000532,-0.0
 5632913,-0.30336967,0.00000559,-0.04247753,-0.14863175,-0.00000640,0.0
 0842873,0.63594524,0.00000238,-0.00000189,-0.00406704,0.00000361,0.000
 00022,0.00439590,0.00000470,-0.00000082,0.00318014,-0.00000184,-0.0000
 0414,-0.06883101,-0.00001150,-0.00000123,-0.06513766,0.00001257,0.0000
 0271,0.17439686,-0.04436610,-0.05330328,-0.00000261,0.02369663,-0.0084
 2890,-0.00000065,-0.13920897,-0.01523576,0.00000175,-0.00350811,0.0019
 1746,-0.00000007,-0.08805427,-0.00634197,0.00000180,0.00548310,0.02454
 093,-0.00000379,1.42733439,-0.05589875,-0.02144031,-0.00000042,0.00398
 833,-0.01283771,-0.00000106,-0.01551516,-0.10484119,-0.00000255,0.0018
 0654,-0.00723887,-0.00000090,-0.00366087,0.02234730,0.00000254,0.01111
 002,0.00659329,-0.00000204,0.49964840,0.32308993,-0.00000248,0.0000004
 0,-0.00778406,-0.00000018,-0.00000087,0.00889824,0.00000166,-0.0000043
 6,-0.04595012,0.00000014,-0.00000069,-0.00185094,-0.00000052,0.0000026
 0,-0.00746807,0.00000376,-0.00000031,0.00918667,0.00000068,0.00000230,
 0.09513580,0.00955471,0.02258668,0.00000094,-0.01064864,0.00217042,0.0
 0000036,-0.06937349,-0.03700233,-0.00000082,0.00296452,0.00026257,0.00
 000010,0.02183510,-0.00697870,-0.00000140,-0.00463351,-0.00948785,0.00
 000121,-1.18290941,-0.44129751,-0.00000085,1.23374601,0.00744266,0.005
 41470,0.00000003,-0.00335829,0.00284109,0.00000025,-0.03622142,0.01006
 211,0.00000025,0.00043309,0.00178830,0.00000034,0.00762826,-0.00767823
 ,-0.00000137,-0.00340287,-0.00270748,0.00000043,-0.44161556,-0.2076112
 7,0.00000025,0.46887366,0.19874957,0.00000018,-0.00000051,0.00482533,0
 .00000008,0.00000020,-0.00215875,-0.00000171,0.00000055,0.01336109,-0.
 00000011,0.00000011,0.00061466,0.00000050,-0.00000077,0.00469394,-0.00
 000087,-0.00000011,-0.00212441,0.00000005,0.00000049,-0.04340547,0.000
 00122,0.00000006,0.02324872,-0.00247286,-0.02924382,-0.00000041,-0.064
 97474,-0.04945628,-0.00000054,-0.00401033,-0.00102058,-0.00000004,0.00
 768418,0.02487727,0.00000071,-0.00100032,0.00045700,0.00000042,-0.0035
 7697,0.00301377,-0.00000031,-0.00077495,-0.00254887,-0.00000004,-0.000
 24122,0.00043280,0.,0.06725501,0.00064999,-0.00457585,-0.00000025,-0.0
 4985869,-0.33900162,-0.00000855,-0.00081320,0.00174890,-0.00000044,-0.
 00527579,-0.01324993,-0.00000051,0.00052641,0.00042221,0.00000009,0.00
 292444,0.00004542,0.00000015,-0.00051809,0.00010705,0.00000006,0.00035
 730,-0.00008709,0.,0.05246453,0.35363965,-0.00000005,0.00000044,0.0041
 5176,-0.00000009,-0.00000827,-0.03935253,0.00000014,-0.00000003,0.0063
 7955,0.00000001,-0.00000076,0.00449871,0.00000079,-0.00000014,-0.00135
 072,0.00000064,-0.00000121,0.00706506,0.00000003,0.00000006,0.00204185
 ,0.00000001,0.00000001,-0.00070282,0.00000008,0.00000942,0.02638865,-0
 .00203732,0.00334738,0.00000131,-0.01591512,-0.00986238,0.00000030,0.0
 0112965,0.00065331,-0.00000067,-0.30508920,-0.09778792,0.00001411,0.00
 086237,0.00001743,0.00000146,-0.00039850,0.00141159,-0.00000005,-0.000
 75763,-0.00029548,-0.00000007,0.00036385,0.00015922,0.00000004,0.00076
 354,-0.00023779,-0.00000038,0.32018253,0.00396249,-0.00221255,-0.00000
 107,0.02042329,0.01041317,0.00000074,0.00089677,-0.00092994,0.00000034
 ,-0.09739586,-0.09664040,0.00000140,-0.00093518,-0.00596327,-0.0000012
 3,-0.02741444,-0.00684036,0.00000323,-0.00027748,-0.00007133,0.0000000
 9,0.00017222,0.00000808,-0.00000002,-0.00007183,0.00092901,-0.00000002
 ,0.10167246,0.10004096,0.00000085,-0.00000040,0.00713257,0.00000124,0.
 00000110,0.00670179,-0.00000002,-0.00000043,0.00002314,0.00001412,0.00
 000482,-0.04417342,-0.00000117,-0.00000059,0.00675761,0.00000357,-0.00
 000306,0.00710099,0.00000011,0.00000014,-0.00190643,-0.00000002,-0.000
 00006,0.00053340,-0.00000013,0.00000017,-0.00370931,-0.00001561,-0.000
 00384,0.02627994,-0.00408981,0.00219720,-0.00000068,-0.00051167,0.0000
 5411,0.00000081,0.00414131,0.02505994,0.00000193,-0.00594529,-0.001260
 74,-0.00000100,-0.06782612,-0.05441489,-0.00000342,0.00134830,-0.02840
 363,0.00000046,0.00368977,0.00179058,0.00000015,-0.00111909,-0.0002583
 9,-0.00000004,0.00009568,-0.00001192,-0.00000007,0.00012201,-0.0014499
 0,-0.00000005,0.06856385,0.00330995,0.00083795,-0.00000068,-0.00086735
 ,0.00064673,0.00000045,-0.00475270,-0.01259869,0.00000054,-0.00108080,
 0.00035684,-0.00000096,-0.05236143,-0.33572022,-0.00001833,0.00038356,
 -0.00417782,-0.00000156,-0.00217288,-0.00030707,0.00000015,0.00137852,
 0.00036362,-0.00000003,-0.00000187,-0.00004624,0.00000002,0.00005934,-
 0.00020794,0.00000027,0.05570573,0.35026316,0.00000044,-0.00000074,0.0
 0460060,-0.00000007,0.00000022,-0.00136460,-0.00000103,-0.00000148,0.0
 0255093,0.00000075,0.00000070,0.00742776,-0.00000443,-0.00001755,-0.03
 512333,0.00000311,-0.00000431,0.00602786,-0.00000003,0.00000045,-0.004
 28482,0.00000002,-0.00000002,0.00084556,-0.00000003,0.00000004,-0.0007
 0417,-0.00000029,0.00000027,-0.00093942,0.00000183,0.00001953,0.023188
 38,-0.23922740,0.14388376,0.00000903,-0.01391486,0.01880446,0.00000109
 ,0.00718925,-0.00808707,-0.00000034,-0.00384150,-0.00320896,0.00000008
 ,0.00061568,-0.00221600,-0.00000026,-0.00056331,-0.00076064,-0.0000002
 9,0.00186039,0.00021014,-0.00000005,0.00000041,0.00000049,0.00000001,0
 .00094882,0.00006223,-0.00000012,-0.00068619,0.00099556,0.00000018,0.0
 0043237,-0.00028627,0.,0.24701973,0.14176379,-0.16838378,-0.00000807,-
 0.01045328,0.01218965,0.00000063,0.02156756,-0.01480806,-0.00000080,-0
 .00293606,-0.00091205,-0.00000048,-0.00324262,-0.00388433,-0.00000053,
 -0.00004191,0.00026698,0.00000064,0.00383247,0.00171523,0.00000021,-0.
 00149970,-0.00078859,-0.00000005,0.00009196,0.00065045,0.00000014,-0.0
 0056472,0.00049469,0.00000014,0.00101088,-0.00042182,-0.00000012,-0.14
 949474,0.17365768,0.00000810,-0.00000788,-0.03434097,0.00000116,0.0000
 0013,0.00545853,0.00000117,-0.00000078,0.00243472,0.00000003,-0.000000
 02,0.00754025,-0.00000052,-0.00000046,0.00418169,0.00000067,-0.0000001
 4,-0.00126876,-0.00000006,0.00000023,-0.00412112,0.00000004,-0.0000000
 8,0.00083475,-0.00000021,0.00000017,-0.00426133,0.00000003,0.00000003,
 -0.00058391,0.00000030,-0.00000029,0.00146929,-0.00000957,0.00000855,0
 .02331865,-0.00041113,0.00063015,0.00000004,-0.00038217,-0.00324347,0.
 00000816,-0.00035818,-0.00304003,-0.00000176,0.00580271,0.00257245,0.0
 0000635,-0.03196762,0.02019536,-0.00000656,-0.16597075,0.06521984,-0.0
 0000813,-0.00229192,0.00022636,-0.00000289,0.00063351,0.00000939,0.000
 00096,0.00055573,-0.00043293,-0.00000137,0.00101580,-0.00207363,-0.000
 00462,0.00167125,0.00115327,0.00000183,0.00006268,0.00003414,-0.000000
 93,0.53408762,0.00243971,-0.00099227,0.00000015,-0.00426001,-0.0014205
 7,0.00000599,-0.00515605,0.00008269,-0.00000841,0.02695658,-0.02506542
 ,0.00000714,-0.00213944,0.01064334,-0.00000612,0.05643917,-0.13270333,
 -0.00000338,-0.00208859,0.00127066,-0.00000097,0.00012689,-0.00073750,
 0.00000059,0.00073364,-0.00038670,-0.00000061,0.00127243,0.00109874,-0
 .00000130,-0.00040405,0.00045824,0.00000724,0.00005460,0.00020021,0.00
 000033,0.05439391,0.53439417,-0.00001078,0.00000111,-0.00134462,0.0000
 1199,-0.00001153,0.00782726,0.00000718,-0.00000194,0.00512504,0.000003
 56,0.00000584,0.00848749,-0.00000535,-0.00000422,0.00411847,0.00002695
 ,-0.00003014,-0.07283564,0.00000410,0.00000110,0.00150760,-0.00000131,
 0.00000021,-0.00055800,0.00000063,-0.00000083,-0.00055274,-0.00000053,
 0.00000293,-0.00381801,-0.00000389,0.00000108,-0.00287393,0.00000054,-
 0.00000072,-0.00065247,-0.00005317,0.00006219,0.53716913,-0.00037605,0
 .00028778,-0.00027032,0.00033968,0.00035356,0.00096579,0.00045948,-0.0
 0021917,0.00061310,-0.00224595,0.00055627,0.00009274,0.00010803,0.0008
 1336,0.00059627,-0.00081064,0.01602446,-0.02188631,0.00027322,0.000143
 13,0.00029883,-0.00017846,-0.00003944,-0.00012291,-0.00013067,0.000093
 11,-0.00004317,0.00004324,0.00020561,-0.00017367,-0.00032503,-0.000300
 36,-0.00046914,0.00001741,-0.00005752,-0.00000565,-0.04596714,-0.00512
 694,0.00660889,0.04840065,-0.00010284,0.00043564,0.00014002,-0.0001016
 3,-0.00078824,-0.00104885,0.00072602,-0.00066664,-0.00074205,0.0025193
 2,-0.00075439,-0.00016717,-0.00247259,0.00070740,-0.00047574,0.0020072
 1,-0.01492754,0.01489748,-0.00026608,-0.00015775,-0.00009050,0.0001721
 2,0.00008231,0.00004600,0.00015711,-0.00011683,0.00007110,0.00012530,0
 .00009487,0.00057499,0.00005526,0.00028317,0.00060445,0.00003539,0.000
 00969,0.00015986,-0.00543802,-0.13312615,0.12904059,0.00160784,0.14584
 119,0.00004846,-0.00029745,-0.00001348,0.00012183,-0.00015857,-0.00037
 515,-0.00048851,0.00015333,0.00017384,0.00022596,-0.00072224,-0.000420
 09,0.00075772,0.00011234,0.00105365,-0.00037853,-0.00256616,0.00235537
 ,0.00007324,0.00010961,-0.00001448,-0.00005225,-0.00002897,0.00000648,
 0.00003156,-0.00003493,0.00005873,0.00001457,-0.00006089,0.00014514,-0
 .00041970,0.00006999,-0.00027343,-0.00001829,0.00000041,-0.00001318,0.
 00610693,0.12914892,-0.21905413,-0.00749907,-0.13966138,0.23602610,-0.
 00037682,0.00028609,0.00027008,0.00034601,0.00035734,-0.00096683,0.000
 46041,-0.00021890,-0.00060646,-0.00226218,0.00057057,-0.00009258,0.000
 11680,0.00081244,-0.00059439,-0.00074842,0.01609587,0.02184436,0.00027
 431,0.00014248,-0.00029767,-0.00017871,-0.00003902,0.00012240,-0.00013
 158,0.00009374,0.00004323,0.00004280,0.00020706,0.00017289,-0.00032625
 ,-0.00030131,0.00046610,0.00001732,-0.00005758,0.00000512,-0.04603229,
 -0.00548302,-0.00703836,-0.00038574,0.00043445,0.00140968,0.04845855,-
 0.00010616,0.00043354,-0.00013975,-0.00009872,-0.00079175,0.00104404,0
 .00072520,-0.00066274,0.00074371,0.00252671,-0.00075518,0.00015715,-0.
 00247653,0.00071142,0.00047936,0.00196049,-0.01497721,-0.01484049,-0.0
 0026648,-0.00015716,0.00008993,0.00017243,0.00008215,-0.00004590,0.000
 15779,-0.00011716,-0.00007016,0.00012565,0.00009800,-0.00057293,0.0000
 5774,0.00028543,-0.00060716,0.00003562,0.00000984,-0.00016005,-0.00577
 502,-0.13402407,-0.12933020,0.00046791,0.01186784,0.01562575,0.0019788
 2,0.14681577,-0.00004169,0.00029831,-0.00001393,-0.00013225,0.00016544
 ,-0.00037422,0.00048686,-0.00015217,0.00017423,-0.00022574,0.00071427,
 -0.00041953,-0.00075135,-0.00011107,0.00105404,0.00036382,0.00260309,0
 .00234194,-0.00007488,-0.00011103,-0.00001437,0.00005328,0.00002934,0.
 00000638,-0.00003189,0.00003527,0.00005810,-0.00001544,0.00005993,0.00
 014664,0.00042258,-0.00007053,-0.00027223,0.00001816,-0.00000006,-0.00
 001279,-0.00650696,-0.12946278,-0.21816440,-0.00145995,-0.01573685,-0.
 02038223,0.00796450,0.13997659,0.23505124,0.00014931,0.00011086,0.0000
 0086,0.00015175,0.00010468,-0.00000266,-0.00013300,-0.00069076,-0.0000
 0209,0.00104101,-0.00271141,-0.00000564,-0.00306851,0.00345794,0.00000
 364,-0.02101714,-0.01212620,0.00004293,-0.00074045,0.00015065,-0.00000
 047,0.00018444,-0.00004457,0.00000019,0.00001066,-0.00002333,0.0000003
 4,0.00035817,0.00108288,0.00000233,0.00007873,0.00013458,0.00000092,0.
 00006920,0.00004732,0.00000032,-0.25044810,-0.11775882,0.00044954,0.00
 077797,0.00054113,0.00006640,0.00072581,0.00051454,-0.00006907,0.27186
 014,0.00010464,0.00015389,-0.00000077,-0.00015480,0.00020018,-0.000001
 14,0.00073802,0.00037342,0.00000290,0.00157328,0.00127585,-0.00000120,
 0.00309448,-0.00266448,0.00000262,0.02088014,0.01019549,-0.00004932,0.
 00057579,-0.00046079,0.00000170,-0.00000673,0.00021824,-0.00000061,-0.
 00004262,0.00003874,0.00000002,-0.00009584,-0.00031172,0.00000099,0.00
 027209,-0.00001534,-0.00000150,-0.00002856,0.00000419,0.00000042,-0.12
 443178,-0.11969203,0.00026454,-0.01480961,-0.00878456,-0.00168977,-0.0
 1487902,-0.00881872,0.00176224,0.12721050,0.12828765,0.00000110,-0.000
 00162,-0.00001581,-0.00000146,0.00000073,-0.00013408,-0.00000513,0.000
 00240,0.00039137,0.00000005,0.00000045,-0.00033471,0.00000169,0.000000
 84,0.00119611,-0.00002513,0.00000003,-0.00178628,0.00000034,0.00000108
 ,0.00002970,-0.00000054,-0.00000069,-0.00002085,0.00000020,0.00000015,
 -0.00000877,0.00000120,-0.00000189,0.00030929,0.00000079,0.00000037,-0
 .00027445,-0.00000019,0.00000010,0.00001664,0.00046212,0.00025101,-0.0
 4438107,0.02275457,0.01238803,0.00072686,-0.02270207,-0.01234989,0.000
 82113,-0.00048754,-0.00029111,0.04346491\\0.00001952,-0.00000144,0.000
 00013,0.00005361,0.00000852,0.00000021,-0.00003745,0.00001520,0.000000
 62,-0.00002523,0.00004059,0.00000004,-0.00001944,0.00000626,0.00000042
 ,-0.00001867,-0.00003461,-0.00000202,0.00004428,-0.00001947,-0.0000008
 1,-0.00000662,-0.00000544,0.00000038,-0.00001723,0.00000156,0.00000001
 ,0.00000479,-0.00001814,-0.00000002,0.00001912,-0.00000430,0.00000009,
 -0.00000782,0.00000525,-0.00000022,-0.00004226,0.00005444,0.00000458,0
 .00001797,-0.00001288,-0.00000005,0.00001731,-0.00001382,-0.00000319,-
 0.00000187,-0.00002172,-0.00000016\\\@


 GROWING OLD ISN'T SO BAD -- WHEN YOU CONSIDER THE ALTERNATIVE.

                     -- MAURICE CHEVALIER
 Job cpu time:       0 days  2 hours 14 minutes  1.7 seconds.
 Elapsed time:       0 days  0 hours 19 minutes 13.7 seconds.
 File lengths (MBytes):  RWF=    211 Int=      0 D2E=      0 Chk=      9 Scr=      1
 Normal termination of Gaussian 16 at Sun Aug  9 16:10:16 2020.
