 Entering Gaussian System, Link 0=/home/ubuntu/g16/g16
 Input=3-NH2PhN2+_UB3LYP-aug-cc-pVDZ-Opt.gjf
 Output=3-NH2PhN2+_UB3LYP-aug-cc-pVDZ-Opt.log
 Initial command:
 /home/ubuntu/g16/l1.exe "/home/ubuntu/g09-linda/scr/Gau-21381.inp" -scrdir="/home/ubuntu/g09-linda/scr/"
 Entering Link 1 = /home/ubuntu/g16/l1.exe PID=     21383.
  
 Copyright (c) 1988,1990,1992,1993,1995,1998,2003,2009,2016,
            Gaussian, Inc.  All Rights Reserved.
  
 This is part of the Gaussian(R) 16 program.  It is based on
 the Gaussian(R) 09 system (copyright 2009, Gaussian, Inc.),
 the Gaussian(R) 03 system (copyright 2003, Gaussian, Inc.),
 the Gaussian(R) 98 system (copyright 1998, Gaussian, Inc.),
 the Gaussian(R) 94 system (copyright 1995, Gaussian, Inc.),
 the Gaussian 92(TM) system (copyright 1992, Gaussian, Inc.),
 the Gaussian 90(TM) system (copyright 1990, Gaussian, Inc.),
 the Gaussian 88(TM) system (copyright 1988, Gaussian, Inc.),
 the Gaussian 86(TM) system (copyright 1986, Carnegie Mellon
 University), and the Gaussian 82(TM) system (copyright 1983,
 Carnegie Mellon University). Gaussian is a federally registered
 trademark of Gaussian, Inc.
  
 This software contains proprietary and confidential information,
 including trade secrets, belonging to Gaussian, Inc.
  
 This software is provided under written license and may be
 used, copied, transmitted, or stored only in accord with that
 written license.
  
 The following legend is applicable only to US Government
 contracts under FAR:
  
                    RESTRICTED RIGHTS LEGEND
  
 Use, reproduction and disclosure by the US Government is
 subject to restrictions as set forth in subparagraphs (a)
 and (c) of the Commercial Computer Software - Restricted
 Rights clause in FAR 52.227-19.
  
 Gaussian, Inc.
 340 Quinnipiac St., Bldg. 40, Wallingford CT 06492
  
  
 ---------------------------------------------------------------
 Warning -- This program may not be used in any manner that
 competes with the business of Gaussian, Inc. or will provide
 assistance to any competitor of Gaussian, Inc.  The licensee
 of this program is prohibited from giving any competitor of
 Gaussian, Inc. access to this program.  By using this program,
 the user acknowledges that Gaussian, Inc. is engaged in the
 business of creating and licensing software in the field of
 computational chemistry and represents and warrants to the
 licensee that it is not a competitor of Gaussian, Inc. and that
 it will not use this program in any manner prohibited above.
 ---------------------------------------------------------------
  

 Cite this work as:
 Gaussian 16, Revision A.03,
 M. J. Frisch, G. W. Trucks, H. B. Schlegel, G. E. Scuseria, 
 M. A. Robb, J. R. Cheeseman, G. Scalmani, V. Barone, 
 G. A. Petersson, H. Nakatsuji, X. Li, M. Caricato, A. V. Marenich, 
 J. Bloino, B. G. Janesko, R. Gomperts, B. Mennucci, H. P. Hratchian, 
 J. V. Ortiz, A. F. Izmaylov, J. L. Sonnenberg, D. Williams-Young, 
 F. Ding, F. Lipparini, F. Egidi, J. Goings, B. Peng, A. Petrone, 
 T. Henderson, D. Ranasinghe, V. G. Zakrzewski, J. Gao, N. Rega, 
 G. Zheng, W. Liang, M. Hada, M. Ehara, K. Toyota, R. Fukuda, 
 J. Hasegawa, M. Ishida, T. Nakajima, Y. Honda, O. Kitao, H. Nakai, 
 T. Vreven, K. Throssell, J. A. Montgomery, Jr., J. E. Peralta, 
 F. Ogliaro, M. J. Bearpark, J. J. Heyd, E. N. Brothers, K. N. Kudin, 
 V. N. Staroverov, T. A. Keith, R. Kobayashi, J. Normand, 
 K. Raghavachari, A. P. Rendell, J. C. Burant, S. S. Iyengar, 
 J. Tomasi, M. Cossi, J. M. Millam, M. Klene, C. Adamo, R. Cammi, 
 J. W. Ochterski, R. L. Martin, K. Morokuma, O. Farkas, 
 J. B. Foresman, and D. J. Fox, Gaussian, Inc., Wallingford CT, 2016.
 
 ******************************************
 Gaussian 16:  ES64L-G16RevA.03 25-Dec-2016
                 9-Aug-2020 
 ******************************************
 %chk=3-NH2PhN2+_UB3LYP-aug-cc-pVDZ-Opt.chk
 %mem=500MW
 %nproc=7
 Will use up to    7 processors via shared memory.
 ----------------------------------------------------------------------
 #p opt=(maxcycles=777) freq ub3lyp/aug-cc-pVDZ pop=(Bonding,AllOrbital
 s,mk,no,nboread)
 ----------------------------------------------------------------------
 1/6=777,18=20,19=15,26=3,38=1/1,3;
 2/9=110,12=2,17=6,18=5,40=1/2;
 3/5=16,7=10,11=2,25=1,30=1,71=1,74=-5,116=2/1,2,3;
 4//1;
 5/5=2,38=5/2;
 6/7=2,8=2,9=2,10=2,15=8,20=1,22=-1,27=20,28=1,31=1,40=2,96=-1/1,2,7;
 7//1,2,3,16;
 1/6=777,18=20,19=15,26=3/3(2);
 2/9=110/2;
 99//99;
 2/9=110/2;
 3/5=16,7=10,11=2,25=1,30=1,71=1,74=-5,116=2/1,2,3;
 4/5=5,16=3,69=1/1;
 5/5=2,38=5/2;
 7//1,2,3,16;
 1/6=777,18=20,19=15,26=3/3(-5);
 2/9=110/2;
 6/7=2,8=2,9=2,10=2,15=8,19=2,20=1,22=-1,27=20,28=1,31=1,40=2,96=-1/1,2,7;
 99/9=1/99;
 Leave Link    1 at Sun Aug  9 01:59:48 2020, MaxMem=   524288000 cpu:               0.3 elap:               0.1
 (Enter /home/ubuntu/g16/l101.exe)
 -----------------------------
 3-NH2PhN2+_UB3LYP-aug-cc-pVDZ
 -----------------------------
 Symbolic Z-matrix:
 Charge =  1 Multiplicity = 1
 C                    -0.71493   1.4239    0.00004 
 C                     0.61469   1.84601   0.00001 
 C                    -0.90751   0.03036   0.00001 
 C                     1.66236   0.92861  -0.00005 
 C                     0.11386  -0.93735  -0.00001 
 C                     1.44417  -0.47868   0.00001 
 N                    -2.21351  -0.42467  -0.00001 
 N                    -3.26836  -0.78398  -0.00002 
 H                     0.83553   2.9125   -0.00004 
 H                     2.68839   1.29829  -0.00014 
 H                    -0.12672  -1.9986   -0.0001 
 H                    -1.55274   2.11675   0.00011 
 N                     2.49287  -1.34244   0.00006 
 H                     3.44381  -1.00655  -0.00019 
 H                     2.35878  -2.34179   0. 
 
 ITRead=  0  0  0  0  0  0  0  0  0  0  0  0  0  0  0
 MicOpt= -1 -1 -1 -1 -1 -1 -1 -1 -1 -1 -1 -1 -1 -1 -1
 NAtoms=     15 NQM=       15 NQMF=       0 NMMI=      0 NMMIF=      0
                NMic=       0 NMicF=      0.
                    Isotopes and Nuclear Properties:
 (Nuclear quadrupole moments (NQMom) in fm**2, nuclear magnetic moments (NMagM)
  in nuclear magnetons)

  Atom         1           2           3           4           5           6           7           8           9          10
 IAtWgt=          12          12          12          12          12          12          14          14           1           1
 AtmWgt=  12.0000000  12.0000000  12.0000000  12.0000000  12.0000000  12.0000000  14.0030740  14.0030740   1.0078250   1.0078250
 NucSpn=           0           0           0           0           0           0           2           2           1           1
 AtZEff=  -0.0000000  -0.0000000  -0.0000000  -0.0000000  -0.0000000  -0.0000000  -0.0000000  -0.0000000  -0.0000000  -0.0000000
 NQMom=    0.0000000   0.0000000   0.0000000   0.0000000   0.0000000   0.0000000   2.0440000   2.0440000   0.0000000   0.0000000
 NMagM=    0.0000000   0.0000000   0.0000000   0.0000000   0.0000000   0.0000000   0.4037610   0.4037610   2.7928460   2.7928460
 AtZNuc=   6.0000000   6.0000000   6.0000000   6.0000000   6.0000000   6.0000000   7.0000000   7.0000000   1.0000000   1.0000000

  Atom        11          12          13          14          15
 IAtWgt=           1           1          14           1           1
 AtmWgt=   1.0078250   1.0078250  14.0030740   1.0078250   1.0078250
 NucSpn=           1           1           2           1           1
 AtZEff=  -0.0000000  -0.0000000  -0.0000000  -0.0000000  -0.0000000
 NQMom=    0.0000000   0.0000000   2.0440000   0.0000000   0.0000000
 NMagM=    2.7928460   2.7928460   0.4037610   2.7928460   2.7928460
 AtZNuc=   1.0000000   1.0000000   7.0000000   1.0000000   1.0000000
 Leave Link  101 at Sun Aug  9 01:59:49 2020, MaxMem=   524288000 cpu:               0.7 elap:               0.1
 (Enter /home/ubuntu/g16/l103.exe)

 GradGradGradGradGradGradGradGradGradGradGradGradGradGradGradGradGradGrad
 Berny optimization.
 Initialization pass.
                           ----------------------------
                           !    Initial Parameters    !
                           ! (Angstroms and Degrees)  !
 --------------------------                            --------------------------
 ! Name  Definition              Value          Derivative Info.                !
 --------------------------------------------------------------------------------
 ! R1    R(1,2)                  1.395          estimate D2E/DX2                !
 ! R2    R(1,3)                  1.4068         estimate D2E/DX2                !
 ! R3    R(1,12)                 1.0872         estimate D2E/DX2                !
 ! R4    R(2,4)                  1.3926         estimate D2E/DX2                !
 ! R5    R(2,9)                  1.0891         estimate D2E/DX2                !
 ! R6    R(3,5)                  1.407          estimate D2E/DX2                !
 ! R7    R(3,7)                  1.383          estimate D2E/DX2                !
 ! R8    R(4,6)                  1.4241         estimate D2E/DX2                !
 ! R9    R(4,10)                 1.0906         estimate D2E/DX2                !
 ! R10   R(5,6)                  1.4072         estimate D2E/DX2                !
 ! R11   R(5,11)                 1.0882         estimate D2E/DX2                !
 ! R12   R(6,13)                 1.3586         estimate D2E/DX2                !
 ! R13   R(7,8)                  1.1144         estimate D2E/DX2                !
 ! R14   R(13,14)                1.0085         estimate D2E/DX2                !
 ! R15   R(13,15)                1.0083         estimate D2E/DX2                !
 ! A1    A(2,1,3)              115.4811         estimate D2E/DX2                !
 ! A2    A(2,1,12)             122.7971         estimate D2E/DX2                !
 ! A3    A(3,1,12)             121.7218         estimate D2E/DX2                !
 ! A4    A(1,2,4)              121.1798         estimate D2E/DX2                !
 ! A5    A(1,2,9)              119.3119         estimate D2E/DX2                !
 ! A6    A(4,2,9)              119.5083         estimate D2E/DX2                !
 ! A7    A(1,3,5)              125.5865         estimate D2E/DX2                !
 ! A8    A(1,3,7)              117.0772         estimate D2E/DX2                !
 ! A9    A(5,3,7)              117.3362         estimate D2E/DX2                !
 ! A10   A(2,4,6)              122.3941         estimate D2E/DX2                !
 ! A11   A(2,4,10)             118.9786         estimate D2E/DX2                !
 ! A12   A(6,4,10)             118.6273         estimate D2E/DX2                !
 ! A13   A(3,5,6)              117.5219         estimate D2E/DX2                !
 ! A14   A(3,5,11)             120.6819         estimate D2E/DX2                !
 ! A15   A(6,5,11)             121.7962         estimate D2E/DX2                !
 ! A16   A(4,6,5)              117.8365         estimate D2E/DX2                !
 ! A17   A(4,6,13)             120.6634         estimate D2E/DX2                !
 ! A18   A(5,6,13)             121.5001         estimate D2E/DX2                !
 ! A19   A(6,13,14)            121.0693         estimate D2E/DX2                !
 ! A20   A(6,13,15)            121.8344         estimate D2E/DX2                !
 ! A21   A(14,13,15)           117.0963         estimate D2E/DX2                !
 ! A22   L(3,7,8,12,-1)        179.6011         estimate D2E/DX2                !
 ! A23   L(3,7,8,12,-2)        180.0004         estimate D2E/DX2                !
 ! D1    D(3,1,2,4)              0.0002         estimate D2E/DX2                !
 ! D2    D(3,1,2,9)            179.9957         estimate D2E/DX2                !
 ! D3    D(12,1,2,4)           179.9985         estimate D2E/DX2                !
 ! D4    D(12,1,2,9)            -0.0059         estimate D2E/DX2                !
 ! D5    D(2,1,3,5)              0.0018         estimate D2E/DX2                !
 ! D6    D(2,1,3,7)           -179.9977         estimate D2E/DX2                !
 ! D7    D(12,1,3,5)          -179.9965         estimate D2E/DX2                !
 ! D8    D(12,1,3,7)             0.0039         estimate D2E/DX2                !
 ! D9    D(1,2,4,6)             -0.0045         estimate D2E/DX2                !
 ! D10   D(1,2,4,10)           179.9959         estimate D2E/DX2                !
 ! D11   D(9,2,4,6)            180.0            estimate D2E/DX2                !
 ! D12   D(9,2,4,10)             0.0004         estimate D2E/DX2                !
 ! D13   D(1,3,5,6)              0.0004         estimate D2E/DX2                !
 ! D14   D(1,3,5,11)          -179.9959         estimate D2E/DX2                !
 ! D15   D(7,3,5,6)            180.0            estimate D2E/DX2                !
 ! D16   D(7,3,5,11)             0.0037         estimate D2E/DX2                !
 ! D17   D(2,4,6,5)              0.0067         estimate D2E/DX2                !
 ! D18   D(2,4,6,13)          -179.9945         estimate D2E/DX2                !
 ! D19   D(10,4,6,5)          -179.9937         estimate D2E/DX2                !
 ! D20   D(10,4,6,13)            0.0051         estimate D2E/DX2                !
 ! D21   D(3,5,6,4)             -0.0045         estimate D2E/DX2                !
 ! D22   D(3,5,6,13)           179.9967         estimate D2E/DX2                !
 ! D23   D(11,5,6,4)           179.9918         estimate D2E/DX2                !
 ! D24   D(11,5,6,13)           -0.007          estimate D2E/DX2                !
 ! D25   D(4,6,13,14)           -0.0163         estimate D2E/DX2                !
 ! D26   D(4,6,13,15)         -179.9931         estimate D2E/DX2                !
 ! D27   D(5,6,13,14)          179.9825         estimate D2E/DX2                !
 ! D28   D(5,6,13,15)            0.0057         estimate D2E/DX2                !
 --------------------------------------------------------------------------------
 Trust Radius=3.00D-01 FncErr=1.00D-07 GrdErr=1.00D-06 EigMax=2.50D+02 EigMin=1.00D-04
 Number of steps in this run=    100 maximum allowed number of steps=    100.
 GradGradGradGradGradGradGradGradGradGradGradGradGradGradGradGradGradGrad

 Leave Link  103 at Sun Aug  9 01:59:49 2020, MaxMem=   524288000 cpu:               0.1 elap:               0.0
 (Enter /home/ubuntu/g16/l202.exe)
                          Input orientation:                          
 ---------------------------------------------------------------------
 Center     Atomic      Atomic             Coordinates (Angstroms)
 Number     Number       Type             X           Y           Z
 ---------------------------------------------------------------------
      1          6           0       -0.714930    1.423900    0.000040
      2          6           0        0.614690    1.846010    0.000010
      3          6           0       -0.907510    0.030360    0.000010
      4          6           0        1.662360    0.928610   -0.000050
      5          6           0        0.113860   -0.937350   -0.000010
      6          6           0        1.444170   -0.478680    0.000010
      7          7           0       -2.213510   -0.424670   -0.000010
      8          7           0       -3.268360   -0.783980   -0.000020
      9          1           0        0.835530    2.912500   -0.000040
     10          1           0        2.688390    1.298290   -0.000140
     11          1           0       -0.126720   -1.998600   -0.000100
     12          1           0       -1.552740    2.116750    0.000110
     13          7           0        2.492870   -1.342440    0.000060
     14          1           0        3.443810   -1.006550   -0.000190
     15          1           0        2.358780   -2.341790    0.000000
 ---------------------------------------------------------------------
                    Distance matrix (angstroms):
                    1          2          3          4          5
     1  C    0.000000
     2  C    1.395015   0.000000
     3  C    1.406784   2.369320   0.000000
     4  C    2.428337   1.392564   2.722331   0.000000
     5  C    2.502478   2.828060   1.407004   2.424801   0.000000
     6  C    2.877764   2.468242   2.406142   1.424104   1.407161
     7  N    2.379696   3.626941   1.383000   4.105330   2.383168
     8  N    3.375609   4.689875   2.497351   5.219671   3.385696
     9  H    2.149385   1.089115   3.368222   2.149295   3.916906
    10  H    3.405637   2.144814   3.812892   1.090597   3.409735
    11  H    3.472679   3.915446   2.174008   3.430651   1.088178
    12  H    1.087183   2.184274   2.183883   3.427615   3.479236
    13  N    4.235873   3.700510   3.667037   2.418143   2.413252
    14  H    4.816867   4.017589   4.473161   2.630287   3.330669
    15  H    4.860876   4.536465   4.036799   3.343728   2.648040
                    6          7          8          9         10
     6  C    0.000000
     7  N    3.658079   0.000000
     8  N    4.722409   1.114366   0.000000
     9  H    3.445366   4.520326   5.523213   0.000000
    10  H    2.169264   5.195884   6.310208   2.457390   0.000000
    11  H    2.185830   2.613800   3.368264   5.004481   4.335243
    12  H    3.964559   2.625916   3.370102   2.517350   4.319382
    13  N    1.358622   4.795030   5.788234   4.566321   2.647958
    14  H    2.068141   5.687166   6.715859   4.707662   2.425479
    15  H    2.075498   4.957942   5.838791   5.470636   3.654973
                   11         12         13         14         15
    11  H    0.000000
    12  H    4.355415   0.000000
    13  N    2.700518   5.322871   0.000000
    14  H    3.705786   5.892412   1.008518   0.000000
    15  H    2.509081   5.931152   1.008306   1.720510   0.000000
 Stoichiometry    C6H6N3(1+)
 Framework group  C1[X(C6H6N3)]
 Deg. of freedom    39
 Full point group                 C1      NOp   1
 Largest Abelian subgroup         C1      NOp   1
 Largest concise Abelian subgroup C1      NOp   1
                         Standard orientation:                         
 ---------------------------------------------------------------------
 Center     Atomic      Atomic             Coordinates (Angstroms)
 Number     Number       Type             X           Y           Z
 ---------------------------------------------------------------------
      1          6           0        0.714929    1.423898   -0.000041
      2          6           0       -0.614690    1.846009   -0.000011
      3          6           0        0.907508    0.030358   -0.000011
      4          6           0       -1.662361    0.928610    0.000049
      5          6           0       -0.113862   -0.937351    0.000009
      6          6           0       -1.444172   -0.478680   -0.000011
      7          7           0        2.213508   -0.424673    0.000009
      8          7           0        3.268358   -0.783983    0.000019
      9          1           0       -0.835530    2.912499    0.000039
     10          1           0       -2.688391    1.298291    0.000139
     11          1           0        0.126717   -1.998601    0.000099
     12          1           0        1.552740    2.116748   -0.000111
     13          7           0       -2.492873   -1.342439   -0.000061
     14          1           0       -3.443812   -1.006549    0.000189
     15          1           0       -2.358783   -2.341790   -0.000001
 ---------------------------------------------------------------------
 Rotational constants (GHZ):           3.3594692           1.2273657           0.8989417
 Leave Link  202 at Sun Aug  9 01:59:49 2020, MaxMem=   524288000 cpu:               0.1 elap:               0.0
 (Enter /home/ubuntu/g16/l301.exe)
 Standard basis: Aug-CC-pVDZ (5D, 7F)
 Ernie: Thresh=  0.10000D-02 Tol=  0.10000D-05 Strict=F.
 Ernie:  18 primitive shells out of 267 were deleted.
 There are   279 symmetry adapted cartesian basis functions of A   symmetry.
 There are   261 symmetry adapted basis functions of A   symmetry.
   261 basis functions,   453 primitive gaussians,   279 cartesian basis functions
    31 alpha electrons       31 beta electrons
       nuclear repulsion energy       392.0649248708 Hartrees.
 IExCor=  402 DFT=T Ex+Corr=B3LYP ExCW=0 ScaHFX=  0.200000
 ScaDFX=  0.800000  0.720000  1.000000  0.810000 ScalE2=  1.000000  1.000000
 IRadAn=      5 IRanWt=     -1 IRanGd=            0 ICorTp=0 IEmpDi=  4
 NAtoms=   15 NActive=   15 NUniq=   15 SFac= 1.00D+00 NAtFMM=   60 NAOKFM=F Big=F
 Integral buffers will be    131072 words long.
 Raffenetti 2 integral format.
 Two-electron integral symmetry is turned on.
 Leave Link  301 at Sun Aug  9 01:59:49 2020, MaxMem=   524288000 cpu:               0.2 elap:               0.0
 (Enter /home/ubuntu/g16/l302.exe)
 NPDir=0 NMtPBC=     1 NCelOv=     1 NCel=       1 NClECP=     1 NCelD=      1
         NCelK=      1 NCelE2=     1 NClLst=     1 CellRange=     0.0.
 One-electron integrals computed using PRISM.
 One-electron integral symmetry used in STVInt
 NBasis=   261 RedAO= T EigKep=  2.20D-06  NBF=   261
 NBsUse=   261 1.00D-06 EigRej= -1.00D+00 NBFU=   261
 Precomputing XC quadrature grid using
 IXCGrd= 4 IRadAn=           5 IRanWt=          -1 IRanGd=           0 AccXCQ= 0.00D+00.
 Generated NRdTot=       0 NPtTot=           0 NUsed=           0 NTot=          32
 NSgBfM=   279   279   279   279   279 MxSgAt=    15 MxSgA2=    15.
 Leave Link  302 at Sun Aug  9 01:59:49 2020, MaxMem=   524288000 cpu:               2.3 elap:               0.3
 (Enter /home/ubuntu/g16/l303.exe)
 DipDrv:  MaxL=1.
 Leave Link  303 at Sun Aug  9 01:59:49 2020, MaxMem=   524288000 cpu:               0.3 elap:               0.1
 (Enter /home/ubuntu/g16/l401.exe)
 ExpMin= 2.97D-02 ExpMax= 9.05D+03 ExpMxC= 3.09D+02 IAcc=3 IRadAn=         5 AccDes= 0.00D+00
 Harris functional with IExCor=  402 and IRadAn=       5 diagonalized for initial guess.
 HarFok:  IExCor=  402 AccDes= 0.00D+00 IRadAn=         5 IDoV= 1 UseB2=F ITyADJ=14
 ICtDFT=  3500011 ScaDFX=  1.000000  1.000000  1.000000  1.000000
 FoFCou: FMM=F IPFlag=           0 FMFlag=      100000 FMFlg1=           0
         NFxFlg=           0 DoJE=T BraDBF=F KetDBF=T FulRan=T
         wScrn=  0.000000 ICntrl=       500 IOpCl=  0 I1Cent=   200000004 NGrid=           0
         NMat0=    1 NMatS0=      1 NMatT0=    0 NMatD0=    1 NMtDS0=    0 NMtDT0=    0
 Petite list used in FoFCou.
 Harris En= -396.289646782225    
 JPrj=0 DoOrth=F DoCkMO=F.
 Initial guess <Sx>= 0.0000 <Sy>= 0.0000 <Sz>= 0.0000 <S**2>=-0.0000 S=-0.0000
 Leave Link  401 at Sun Aug  9 01:59:52 2020, MaxMem=   524288000 cpu:              17.0 elap:               2.5
 (Enter /home/ubuntu/g16/l502.exe)
 Integral symmetry usage will be decided dynamically.
 UHF open shell SCF:
 Using DIIS extrapolation, IDIIS=  1040.
 NGot=   524288000 LenX=   524127712 LenY=   524049430
 Requested convergence on RMS density matrix=1.00D-08 within 128 cycles.
 Requested convergence on MAX density matrix=1.00D-06.
 Requested convergence on             energy=1.00D-06.
 No special actions if energy rises.
 Fock matrices will be formed incrementally for  20 cycles.

 Cycle   1  Pass 1  IDiag  1:
 FoFJK:  IHMeth= 1 ICntrl=       0 DoSepK=F KAlg= 0 I1Cent=           0 FoldK=F
 IRaf= 980000000 NMat=       1 IRICut=       1 DoRegI=T DoRafI=F ISym2E= 0 IDoP0=0 IntGTp=1.
 FoFCou: FMM=F IPFlag=           0 FMFlag=      100000 FMFlg1=           0
         NFxFlg=           0 DoJE=F BraDBF=F KetDBF=F FulRan=T
         wScrn=  0.000000 ICntrl=         0 IOpCl=  1 I1Cent=           0 NGrid=           0
         NMat0=    1 NMatS0=      1 NMatT0=    0 NMatD0=    1 NMtDS0=    0 NMtDT0=    0
 Symmetry not used in FoFCou.
 E= -396.043086619508    
 DIIS: error= 2.24D-02 at cycle   1 NSaved=   1.
 NSaved= 1 IEnMin= 1 EnMin= -396.043086619508     IErMin= 1 ErrMin= 2.24D-02
 ErrMax= 2.24D-02  0.00D+00 EMaxC= 1.00D-01 BMatC= 7.62D-01 BMatP= 7.62D-01
 IDIUse=3 WtCom= 7.76D-01 WtEn= 2.24D-01
 Coeff-Com:  0.100D+01
 Coeff-En:   0.100D+01
 Coeff:      0.100D+01
 Gap=     0.018 Goal=   None    Shift=    0.000
 Gap=     0.018 Goal=   None    Shift=    0.000
 GapD=    0.018 DampG=0.250 DampE=0.500 DampFc=0.2500 IDamp=-1.
 Damping current iteration by 2.50D-01
 RMSDP=4.41D-02 MaxDP=2.54D+00              OVMax= 8.97D-01

 Cycle   2  Pass 1  IDiag  1:
 RMSU=  5.22D-03    CP:  9.21D-01
 E= -395.938575239798     Delta-E=        0.104511379710 Rises=F Damp=T
 DIIS: error= 1.27D-02 at cycle   2 NSaved=   2.
 NSaved= 2 IEnMin= 1 EnMin= -396.043086619508     IErMin= 2 ErrMin= 1.27D-02
 ErrMax= 1.27D-02  0.00D+00 EMaxC= 1.00D-01 BMatC= 1.97D-01 BMatP= 7.62D-01
 IDIUse=3 WtCom= 8.73D-01 WtEn= 1.27D-01
 Coeff-Com:  0.161D+00 0.839D+00
 Coeff-En:   0.666D+00 0.334D+00
 Coeff:      0.225D+00 0.775D+00
 Gap=    -0.087 Goal=   None    Shift=    0.000
 Gap=    -0.087 Goal=   None    Shift=    0.000
 RMSDP=3.66D-02 MaxDP=2.36D+00 DE= 1.05D-01 OVMax= 9.71D-01

 Cycle   3  Pass 1  IDiag  1:
 RMSU=  8.99D-03    CP:  6.39D-01  2.43D+00
 E= -396.109934887595     Delta-E=       -0.171359647797 Rises=F Damp=F
 DIIS: error= 2.29D-02 at cycle   3 NSaved=   3.
 NSaved= 3 IEnMin= 3 EnMin= -396.109934887595     IErMin= 2 ErrMin= 1.27D-02
 ErrMax= 2.29D-02  0.00D+00 EMaxC= 1.00D-01 BMatC= 4.68D-01 BMatP= 1.97D-01
 IDIUse=2 WtCom= 0.00D+00 WtEn= 1.00D+00
 Coeff-En:   0.128D+00 0.222D+00 0.650D+00
 Coeff:      0.128D+00 0.222D+00 0.650D+00
 Gap=     0.095 Goal=   None    Shift=    0.000
 Gap=     0.095 Goal=   None    Shift=    0.000
 RMSDP=9.89D-03 MaxDP=5.11D-01 DE=-1.71D-01 OVMax= 9.75D-01

 Cycle   4  Pass 1  IDiag  1:
 RMSU=  5.54D-03    CP:  6.80D-01  2.69D+00  3.01D-01
 E= -394.431796603116     Delta-E=        1.678138284479 Rises=F Damp=F
 DIIS: error= 7.02D-02 at cycle   4 NSaved=   4.
 NSaved= 4 IEnMin= 3 EnMin= -396.109934887595     IErMin= 2 ErrMin= 1.27D-02
 ErrMax= 7.02D-02  0.00D+00 EMaxC= 1.00D-01 BMatC= 4.32D+00 BMatP= 1.97D-01
 IDIUse=2 WtCom= 0.00D+00 WtEn= 1.00D+00
 EnCoef did     2 forward-backward iterations
 Coeff-En:   0.180D+00 0.000D+00 0.690D+00 0.130D+00
 Coeff:      0.180D+00 0.000D+00 0.690D+00 0.130D+00
 Gap=    -0.049 Goal=   None    Shift=    0.000
 Gap=    -0.049 Goal=   None    Shift=    0.000
 RMSDP=5.60D-03 MaxDP=2.75D-01 DE= 1.68D+00 OVMax= 9.93D-01

 Cycle   5  Pass 1  IDiag  1:
 RMSU=  3.52D-03    CP:  6.77D-01  2.28D+00  5.84D-01  4.92D-01
 E= -396.172268192384     Delta-E=       -1.740471589268 Rises=F Damp=F
 DIIS: error= 2.80D-02 at cycle   5 NSaved=   5.
 NSaved= 5 IEnMin= 5 EnMin= -396.172268192384     IErMin= 2 ErrMin= 1.27D-02
 ErrMax= 2.80D-02  0.00D+00 EMaxC= 1.00D-01 BMatC= 3.88D-01 BMatP= 1.97D-01
 IDIUse=2 WtCom= 0.00D+00 WtEn= 1.00D+00
 Coeff-En:   0.000D+00 0.000D+00 0.391D+00 0.000D+00 0.609D+00
 Coeff:      0.000D+00 0.000D+00 0.391D+00 0.000D+00 0.609D+00
 Gap=     0.094 Goal=   None    Shift=    0.000
 Gap=     0.094 Goal=   None    Shift=    0.000
 RMSDP=4.15D-03 MaxDP=2.08D-01 DE=-1.74D+00 OVMax= 1.55D-01

 Cycle   6  Pass 1  IDiag  1:
 RMSU=  3.17D-03    CP:  6.71D-01  2.10D+00  7.28D-01  3.19D-01  4.88D-01
 E= -396.211020221168     Delta-E=       -0.038752028783 Rises=F Damp=F
 DIIS: error= 1.70D-02 at cycle   6 NSaved=   6.
 NSaved= 6 IEnMin= 6 EnMin= -396.211020221168     IErMin= 2 ErrMin= 1.27D-02
 ErrMax= 1.70D-02  0.00D+00 EMaxC= 1.00D-01 BMatC= 2.22D-01 BMatP= 1.97D-01
 IDIUse=2 WtCom= 0.00D+00 WtEn= 1.00D+00
 Coeff-En:   0.000D+00 0.000D+00 0.000D+00 0.000D+00 0.389D+00 0.611D+00
 Coeff:      0.000D+00 0.000D+00 0.000D+00 0.000D+00 0.389D+00 0.611D+00
 Gap=     0.137 Goal=   None    Shift=    0.000
 Gap=     0.137 Goal=   None    Shift=    0.000
 RMSDP=2.93D-03 MaxDP=7.58D-02 DE=-3.88D-02 OVMax= 1.36D-01

 Cycle   7  Pass 1  IDiag  1:
 RMSU=  1.84D-03    CP:  6.65D-01  2.26D+00  8.07D-01  2.33D-01  4.94D-01
                    CP:  4.38D-01
 E= -396.236582570687     Delta-E=       -0.025562349520 Rises=F Damp=F
 DIIS: error= 6.76D-03 at cycle   7 NSaved=   7.
 NSaved= 7 IEnMin= 7 EnMin= -396.236582570687     IErMin= 7 ErrMin= 6.76D-03
 ErrMax= 6.76D-03  0.00D+00 EMaxC= 1.00D-01 BMatC= 8.18D-02 BMatP= 1.97D-01
 IDIUse=3 WtCom= 9.32D-01 WtEn= 6.76D-02
 EnCoef did     6 forward-backward iterations
 Coeff-Com: -0.113D-01-0.137D-01 0.346D-01-0.434D-02 0.274D+00 0.403D+00
 Coeff-Com:  0.318D+00
 Coeff-En:   0.000D+00 0.000D+00 0.000D+00 0.000D+00 0.123D+00 0.352D+00
 Coeff-En:   0.525D+00
 Coeff:     -0.105D-01-0.127D-01 0.322D-01-0.404D-02 0.264D+00 0.399D+00
 Coeff:      0.332D+00
 Gap=     0.102 Goal=   None    Shift=    0.000
 Gap=     0.102 Goal=   None    Shift=    0.000
 RMSDP=1.74D-03 MaxDP=8.09D-02 DE=-2.56D-02 OVMax= 7.50D-02

 Cycle   8  Pass 1  IDiag  1:
 RMSU=  4.88D-04    CP:  6.69D-01  2.25D+00  7.29D-01  3.29D-01  6.27D-01
                    CP:  6.01D-01  3.74D-01
 E= -396.258942400368     Delta-E=       -0.022359829681 Rises=F Damp=F
 DIIS: error= 1.22D-03 at cycle   8 NSaved=   8.
 NSaved= 8 IEnMin= 8 EnMin= -396.258942400368     IErMin= 8 ErrMin= 1.22D-03
 ErrMax= 1.22D-03  0.00D+00 EMaxC= 1.00D-01 BMatC= 2.29D-03 BMatP= 8.18D-02
 IDIUse=3 WtCom= 9.88D-01 WtEn= 1.22D-02
 Coeff-Com: -0.285D-02-0.743D-02-0.171D-01-0.203D-03 0.419D-01 0.153D+00
 Coeff-Com:  0.212D+00 0.620D+00
 Coeff-En:   0.000D+00 0.000D+00 0.000D+00 0.000D+00 0.000D+00 0.000D+00
 Coeff-En:   0.000D+00 0.100D+01
 Coeff:     -0.282D-02-0.734D-02-0.168D-01-0.201D-03 0.414D-01 0.151D+00
 Coeff:      0.210D+00 0.625D+00
 Gap=     0.102 Goal=   None    Shift=    0.000
 Gap=     0.102 Goal=   None    Shift=    0.000
 RMSDP=2.92D-04 MaxDP=1.00D-02 DE=-2.24D-02 OVMax= 1.60D-02

 Cycle   9  Pass 1  IDiag  1:
 RMSU=  1.43D-04    CP:  6.68D-01  2.24D+00  7.34D-01  3.19D-01  6.11D-01
                    CP:  5.97D-01  4.14D-01  5.86D-01
 E= -396.259618439815     Delta-E=       -0.000676039447 Rises=F Damp=F
 DIIS: error= 3.90D-04 at cycle   9 NSaved=   9.
 NSaved= 9 IEnMin= 9 EnMin= -396.259618439815     IErMin= 9 ErrMin= 3.90D-04
 ErrMax= 3.90D-04  0.00D+00 EMaxC= 1.00D-01 BMatC= 1.02D-04 BMatP= 2.29D-03
 IDIUse=3 WtCom= 9.96D-01 WtEn= 3.90D-03
 Coeff-Com:  0.982D-03-0.575D-02-0.979D-02 0.678D-03 0.589D-02 0.550D-01
 Coeff-Com:  0.893D-01 0.341D+00 0.523D+00
 Coeff-En:   0.000D+00 0.000D+00 0.000D+00 0.000D+00 0.000D+00 0.000D+00
 Coeff-En:   0.000D+00 0.000D+00 0.100D+01
 Coeff:      0.978D-03-0.573D-02-0.976D-02 0.676D-03 0.587D-02 0.547D-01
 Coeff:      0.890D-01 0.339D+00 0.525D+00
 Gap=     0.102 Goal=   None    Shift=    0.000
 Gap=     0.102 Goal=   None    Shift=    0.000
 RMSDP=8.34D-05 MaxDP=4.51D-03 DE=-6.76D-04 OVMax= 2.61D-03

 Cycle  10  Pass 1  IDiag  1:
 RMSU=  4.84D-05    CP:  6.69D-01  2.24D+00  7.36D-01  3.20D-01  6.08D-01
                    CP:  5.98D-01  4.16D-01  5.88D-01  5.71D-01
 E= -396.259643821127     Delta-E=       -0.000025381312 Rises=F Damp=F
 DIIS: error= 5.05D-05 at cycle  10 NSaved=  10.
 NSaved=10 IEnMin=10 EnMin= -396.259643821127     IErMin=10 ErrMin= 5.05D-05
 ErrMax= 5.05D-05  0.00D+00 EMaxC= 1.00D-01 BMatC= 4.10D-06 BMatP= 1.02D-04
 IDIUse=1 WtCom= 1.00D+00 WtEn= 0.00D+00
 Coeff-Com:  0.125D-02-0.140D-02-0.176D-03 0.437D-04-0.197D-02-0.178D-03
 Coeff-Com:  0.317D-02 0.529D-01 0.172D+00 0.774D+00
 Coeff:      0.125D-02-0.140D-02-0.176D-03 0.437D-04-0.197D-02-0.178D-03
 Coeff:      0.317D-02 0.529D-01 0.172D+00 0.774D+00
 Gap=     0.102 Goal=   None    Shift=    0.000
 Gap=     0.102 Goal=   None    Shift=    0.000
 RMSDP=2.40D-05 MaxDP=8.95D-04 DE=-2.54D-05 OVMax= 5.12D-04

 Cycle  11  Pass 1  IDiag  1:
 RMSU=  1.31D-05    CP:  6.68D-01  2.24D+00  7.36D-01  3.20D-01  6.08D-01
                    CP:  5.98D-01  4.14D-01  5.97D-01  6.20D-01  7.74D-01
 E= -396.259644814161     Delta-E=       -0.000000993033 Rises=F Damp=F
 DIIS: error= 2.12D-05 at cycle  11 NSaved=  11.
 NSaved=11 IEnMin=11 EnMin= -396.259644814161     IErMin=11 ErrMin= 2.12D-05
 ErrMax= 2.12D-05  0.00D+00 EMaxC= 1.00D-01 BMatC= 4.37D-07 BMatP= 4.10D-06
 IDIUse=1 WtCom= 1.00D+00 WtEn= 0.00D+00
 Coeff-Com:  0.529D-03-0.220D-03 0.362D-03-0.242D-04-0.121D-02-0.176D-02
 Coeff-Com: -0.436D-03 0.128D-01 0.509D-01 0.287D+00 0.652D+00
 Coeff:      0.529D-03-0.220D-03 0.362D-03-0.242D-04-0.121D-02-0.176D-02
 Coeff:     -0.436D-03 0.128D-01 0.509D-01 0.287D+00 0.652D+00
 Gap=     0.102 Goal=   None    Shift=    0.000
 Gap=     0.102 Goal=   None    Shift=    0.000
 RMSDP=5.99D-06 MaxDP=2.54D-04 DE=-9.93D-07 OVMax= 1.99D-04

 Cycle  12  Pass 1  IDiag  1:
 RMSU=  2.96D-06    CP:  6.68D-01  2.24D+00  7.36D-01  3.20D-01  6.08D-01
                    CP:  5.97D-01  4.15D-01  5.99D-01  6.14D-01  8.01D-01
                    CP:  8.39D-01
 E= -396.259644944905     Delta-E=       -0.000000130745 Rises=F Damp=F
 DIIS: error= 5.95D-06 at cycle  12 NSaved=  12.
 NSaved=12 IEnMin=12 EnMin= -396.259644944905     IErMin=12 ErrMin= 5.95D-06
 ErrMax= 5.95D-06  0.00D+00 EMaxC= 1.00D-01 BMatC= 7.95D-08 BMatP= 4.37D-07
 IDIUse=1 WtCom= 1.00D+00 WtEn= 0.00D+00
 Coeff-Com:  0.151D-03-0.147D-03 0.154D-03-0.787D-06-0.280D-03-0.983D-03
 Coeff-Com: -0.819D-03-0.284D-02-0.625D-03 0.485D-01 0.359D+00 0.598D+00
 Coeff:      0.151D-03-0.147D-03 0.154D-03-0.787D-06-0.280D-03-0.983D-03
 Coeff:     -0.819D-03-0.284D-02-0.625D-03 0.485D-01 0.359D+00 0.598D+00
 Gap=     0.102 Goal=   None    Shift=    0.000
 Gap=     0.102 Goal=   None    Shift=    0.000
 RMSDP=1.89D-06 MaxDP=6.03D-05 DE=-1.31D-07 OVMax= 5.17D-05

 Cycle  13  Pass 1  IDiag  1:
 RMSU=  1.55D-06    CP:  6.68D-01  2.24D+00  7.36D-01  3.20D-01  6.08D-01
                    CP:  5.97D-01  4.15D-01  5.98D-01  6.16D-01  8.03D-01
                    CP:  8.28D-01  8.59D-01
 E= -396.259644962721     Delta-E=       -0.000000017815 Rises=F Damp=F
 DIIS: error= 2.94D-06 at cycle  13 NSaved=  13.
 NSaved=13 IEnMin=13 EnMin= -396.259644962721     IErMin=13 ErrMin= 2.94D-06
 ErrMax= 2.94D-06  0.00D+00 EMaxC= 1.00D-01 BMatC= 7.26D-09 BMatP= 7.95D-08
 IDIUse=1 WtCom= 1.00D+00 WtEn= 0.00D+00
 Coeff-Com: -0.500D-05 0.172D-04 0.417D-04-0.513D-05 0.684D-05-0.787D-04
 Coeff-Com: -0.695D-04-0.171D-02-0.630D-02-0.178D-01 0.470D-01 0.222D+00
 Coeff-Com:  0.757D+00
 Coeff:     -0.500D-05 0.172D-04 0.417D-04-0.513D-05 0.684D-05-0.787D-04
 Coeff:     -0.695D-04-0.171D-02-0.630D-02-0.178D-01 0.470D-01 0.222D+00
 Coeff:      0.757D+00
 Gap=     0.102 Goal=   None    Shift=    0.000
 Gap=     0.102 Goal=   None    Shift=    0.000
 RMSDP=6.52D-07 MaxDP=2.05D-05 DE=-1.78D-08 OVMax= 2.92D-05

 Cycle  14  Pass 1  IDiag  1:
 RMSU=  4.89D-07    CP:  6.68D-01  2.24D+00  7.36D-01  3.20D-01  6.08D-01
                    CP:  5.97D-01  4.15D-01  5.98D-01  6.14D-01  8.02D-01
                    CP:  8.40D-01  9.02D-01  8.94D-01
 E= -396.259644964584     Delta-E=       -0.000000001864 Rises=F Damp=F
 DIIS: error= 8.94D-07 at cycle  14 NSaved=  14.
 NSaved=14 IEnMin=14 EnMin= -396.259644964584     IErMin=14 ErrMin= 8.94D-07
 ErrMax= 8.94D-07  0.00D+00 EMaxC= 1.00D-01 BMatC= 1.24D-09 BMatP= 7.26D-09
 IDIUse=1 WtCom= 1.00D+00 WtEn= 0.00D+00
 Coeff-Com: -0.119D-04 0.128D-04 0.662D-05-0.151D-05 0.203D-04 0.198D-04
 Coeff-Com:  0.229D-04-0.844D-03-0.388D-02-0.138D-01 0.675D-02 0.107D+00
 Coeff-Com:  0.470D+00 0.434D+00
 Coeff:     -0.119D-04 0.128D-04 0.662D-05-0.151D-05 0.203D-04 0.198D-04
 Coeff:      0.229D-04-0.844D-03-0.388D-02-0.138D-01 0.675D-02 0.107D+00
 Coeff:      0.470D+00 0.434D+00
 Gap=     0.102 Goal=   None    Shift=    0.000
 Gap=     0.102 Goal=   None    Shift=    0.000
 RMSDP=2.68D-07 MaxDP=1.10D-05 DE=-1.86D-09 OVMax= 1.13D-05

 Cycle  15  Pass 1  IDiag  1:
 RMSU=  1.53D-07    CP:  6.68D-01  2.24D+00  7.36D-01  3.20D-01  6.08D-01
                    CP:  5.97D-01  4.15D-01  5.98D-01  6.14D-01  8.03D-01
                    CP:  8.44D-01  9.03D-01  9.41D-01  6.58D-01
 E= -396.259644964858     Delta-E=       -0.000000000274 Rises=F Damp=F
 DIIS: error= 3.67D-07 at cycle  15 NSaved=  15.
 NSaved=15 IEnMin=15 EnMin= -396.259644964858     IErMin=15 ErrMin= 3.67D-07
 ErrMax= 3.67D-07  0.00D+00 EMaxC= 1.00D-01 BMatC= 1.31D-10 BMatP= 1.24D-09
 IDIUse=1 WtCom= 1.00D+00 WtEn= 0.00D+00
 Coeff-Com: -0.632D-05 0.618D-05-0.269D-05-0.423D-06 0.533D-05 0.703D-05
 Coeff-Com:  0.145D-04-0.888D-04-0.651D-03-0.160D-02 0.153D-02 0.252D-01
 Coeff-Com:  0.977D-01 0.187D+00 0.691D+00
 Coeff:     -0.632D-05 0.618D-05-0.269D-05-0.423D-06 0.533D-05 0.703D-05
 Coeff:      0.145D-04-0.888D-04-0.651D-03-0.160D-02 0.153D-02 0.252D-01
 Coeff:      0.977D-01 0.187D+00 0.691D+00
 Gap=     0.102 Goal=   None    Shift=    0.000
 Gap=     0.102 Goal=   None    Shift=    0.000
 RMSDP=5.82D-08 MaxDP=2.13D-06 DE=-2.74D-10 OVMax= 2.72D-06

 Cycle  16  Pass 1  IDiag  1:
 RMSU=  4.09D-08    CP:  6.68D-01  2.24D+00  7.36D-01  3.20D-01  6.08D-01
                    CP:  5.97D-01  4.15D-01  5.98D-01  6.14D-01  8.03D-01
                    CP:  8.44D-01  9.09D-01  9.40D-01  6.89D-01  9.64D-01
 E= -396.259644964900     Delta-E=       -0.000000000041 Rises=F Damp=F
 DIIS: error= 1.91D-07 at cycle  16 NSaved=  16.
 NSaved=16 IEnMin=16 EnMin= -396.259644964900     IErMin=16 ErrMin= 1.91D-07
 ErrMax= 1.91D-07  0.00D+00 EMaxC= 1.00D-01 BMatC= 2.72D-11 BMatP= 1.31D-10
 IDIUse=1 WtCom= 1.00D+00 WtEn= 0.00D+00
 Coeff-Com: -0.360D-05 0.436D-05-0.194D-05-0.296D-06 0.198D-05 0.123D-05
 Coeff-Com:  0.737D-05 0.435D-04 0.398D-04 0.825D-03 0.127D-02 0.645D-02
 Coeff-Com:  0.114D-01 0.606D-01 0.369D+00 0.551D+00
 Coeff:     -0.360D-05 0.436D-05-0.194D-05-0.296D-06 0.198D-05 0.123D-05
 Coeff:      0.737D-05 0.435D-04 0.398D-04 0.825D-03 0.127D-02 0.645D-02
 Coeff:      0.114D-01 0.606D-01 0.369D+00 0.551D+00
 Gap=     0.102 Goal=   None    Shift=    0.000
 Gap=     0.102 Goal=   None    Shift=    0.000
 RMSDP=3.50D-08 MaxDP=2.04D-06 DE=-4.15D-11 OVMax= 5.91D-07

 Cycle  17  Pass 1  IDiag  1:
 RMSU=  1.63D-08    CP:  6.68D-01  2.24D+00  7.36D-01  3.20D-01  6.08D-01
                    CP:  5.97D-01  4.15D-01  5.98D-01  6.14D-01  8.03D-01
                    CP:  8.44D-01  9.08D-01  9.42D-01  7.08D-01  9.37D-01
                    CP:  7.57D-01
 E= -396.259644964898     Delta-E=        0.000000000002 Rises=F Damp=F
 DIIS: error= 1.03D-07 at cycle  17 NSaved=  17.
 NSaved=17 IEnMin=16 EnMin= -396.259644964900     IErMin=17 ErrMin= 1.03D-07
 ErrMax= 1.03D-07  0.00D+00 EMaxC= 1.00D-01 BMatC= 8.25D-12 BMatP= 2.72D-11
 IDIUse=1 WtCom= 1.00D+00 WtEn= 0.00D+00
 Coeff-Com: -0.101D-05 0.173D-05-0.203D-06-0.102D-06-0.506D-06-0.392D-05
 Coeff-Com: -0.233D-05 0.229D-04 0.139D-03 0.846D-03 0.100D-02 0.172D-03
 Coeff-Com: -0.972D-02-0.231D-01-0.370D-01 0.111D+00 0.957D+00
 Coeff:     -0.101D-05 0.173D-05-0.203D-06-0.102D-06-0.506D-06-0.392D-05
 Coeff:     -0.233D-05 0.229D-04 0.139D-03 0.846D-03 0.100D-02 0.172D-03
 Coeff:     -0.972D-02-0.231D-01-0.370D-01 0.111D+00 0.957D+00
 Gap=     0.102 Goal=   None    Shift=    0.000
 Gap=     0.102 Goal=   None    Shift=    0.000
 RMSDP=2.05D-08 MaxDP=7.43D-07 DE= 1.93D-12 OVMax= 4.95D-07

 Cycle  18  Pass 1  IDiag  1:
 RMSU=  4.82D-09    CP:  6.68D-01  2.24D+00  7.36D-01  3.20D-01  6.08D-01
                    CP:  5.97D-01  4.15D-01  5.98D-01  6.14D-01  8.03D-01
                    CP:  8.44D-01  9.08D-01  9.43D-01  7.10D-01  9.60D-01
                    CP:  8.01D-01  1.01D+00
 E= -396.259644964904     Delta-E=       -0.000000000006 Rises=F Damp=F
 DIIS: error= 3.22D-08 at cycle  18 NSaved=  18.
 NSaved=18 IEnMin=18 EnMin= -396.259644964904     IErMin=18 ErrMin= 3.22D-08
 ErrMax= 3.22D-08  0.00D+00 EMaxC= 1.00D-01 BMatC= 9.69D-13 BMatP= 8.25D-12
 IDIUse=1 WtCom= 1.00D+00 WtEn= 0.00D+00
 Coeff-Com: -0.133D-06 0.259D-06 0.360D-07 0.840D-08-0.456D-06-0.193D-05
 Coeff-Com: -0.221D-05-0.284D-05 0.287D-04 0.203D-03 0.481D-03 0.300D-03
 Coeff-Com: -0.128D-02-0.164D-01-0.568D-01-0.378D-01 0.248D+00 0.863D+00
 Coeff:     -0.133D-06 0.259D-06 0.360D-07 0.840D-08-0.456D-06-0.193D-05
 Coeff:     -0.221D-05-0.284D-05 0.287D-04 0.203D-03 0.481D-03 0.300D-03
 Coeff:     -0.128D-02-0.164D-01-0.568D-01-0.378D-01 0.248D+00 0.863D+00
 Gap=     0.102 Goal=   None    Shift=    0.000
 Gap=     0.102 Goal=   None    Shift=    0.000
 RMSDP=6.52D-09 MaxDP=2.73D-07 DE=-5.80D-12 OVMax= 2.35D-07

 SCF Done:  E(UB3LYP) =  -396.259644965     A.U. after   18 cycles
            NFock= 18  Conv=0.65D-08     -V/T= 2.0064
 <Sx>= 0.0000 <Sy>= 0.0000 <Sz>= 0.0000 <S**2>=-0.0000 S=-0.0000
 <L.S>= 0.000000000000E+00
 KE= 3.937203886212D+02 PE=-1.692756168780D+03 EE= 5.107112103234D+02
 Annihilation of the first spin contaminant:
 S**2 before annihilation    -0.0000,   after     0.0000
 Leave Link  502 at Sun Aug  9 02:03:04 2020, MaxMem=   524288000 cpu:            1340.4 elap:             192.3
 (Enter /home/ubuntu/g16/l601.exe)
 Copying SCF densities to generalized density rwf, IOpCl= 1 IROHF=0.

 **********************************************************************

            Population analysis using the SCF density.

 **********************************************************************

 Orbital symmetries:
 Alpha Orbitals:
       Occupied  (A) (A) (A) (A) (A) (A) (A) (A) (A) (A) (A) (A)
                 (A) (A) (A) (A) (A) (A) (A) (A) (A) (A) (A) (A)
                 (A) (A) (A) (A) (A) (A) (A)
       Virtual   (A) (A) (A) (A) (A) (A) (A) (A) (A) (A) (A) (A)
                 (A) (A) (A) (A) (A) (A) (A) (A) (A) (A) (A) (A)
                 (A) (A) (A) (A) (A) (A) (A) (A) (A) (A) (A) (A)
                 (A) (A) (A) (A) (A) (A) (A) (A) (A) (A) (A) (A)
                 (A) (A) (A) (A) (A) (A) (A) (A) (A) (A) (A) (A)
                 (A) (A) (A) (A) (A) (A) (A) (A) (A) (A) (A) (A)
                 (A) (A) (A) (A) (A) (A) (A) (A) (A) (A) (A) (A)
                 (A) (A) (A) (A) (A) (A) (A) (A) (A) (A) (A) (A)
                 (A) (A) (A) (A) (A) (A) (A) (A) (A) (A) (A) (A)
                 (A) (A) (A) (A) (A) (A) (A) (A) (A) (A) (A) (A)
                 (A) (A) (A) (A) (A) (A) (A) (A) (A) (A) (A) (A)
                 (A) (A) (A) (A) (A) (A) (A) (A) (A) (A) (A) (A)
                 (A) (A) (A) (A) (A) (A) (A) (A) (A) (A) (A) (A)
                 (A) (A) (A) (A) (A) (A) (A) (A) (A) (A) (A) (A)
                 (A) (A) (A) (A) (A) (A) (A) (A) (A) (A) (A) (A)
                 (A) (A) (A) (A) (A) (A) (A) (A) (A) (A) (A) (A)
                 (A) (A) (A) (A) (A) (A) (A) (A) (A) (A) (A) (A)
                 (A) (A) (A) (A) (A) (A) (A) (A) (A) (A) (A) (A)
                 (A) (A) (A) (A) (A) (A) (A) (A) (A) (A) (A) (A)
                 (A) (A)
 Beta  Orbitals:
       Occupied  (A) (A) (A) (A) (A) (A) (A) (A) (A) (A) (A) (A)
                 (A) (A) (A) (A) (A) (A) (A) (A) (A) (A) (A) (A)
                 (A) (A) (A) (A) (A) (A) (A)
       Virtual   (A) (A) (A) (A) (A) (A) (A) (A) (A) (A) (A) (A)
                 (A) (A) (A) (A) (A) (A) (A) (A) (A) (A) (A) (A)
                 (A) (A) (A) (A) (A) (A) (A) (A) (A) (A) (A) (A)
                 (A) (A) (A) (A) (A) (A) (A) (A) (A) (A) (A) (A)
                 (A) (A) (A) (A) (A) (A) (A) (A) (A) (A) (A) (A)
                 (A) (A) (A) (A) (A) (A) (A) (A) (A) (A) (A) (A)
                 (A) (A) (A) (A) (A) (A) (A) (A) (A) (A) (A) (A)
                 (A) (A) (A) (A) (A) (A) (A) (A) (A) (A) (A) (A)
                 (A) (A) (A) (A) (A) (A) (A) (A) (A) (A) (A) (A)
                 (A) (A) (A) (A) (A) (A) (A) (A) (A) (A) (A) (A)
                 (A) (A) (A) (A) (A) (A) (A) (A) (A) (A) (A) (A)
                 (A) (A) (A) (A) (A) (A) (A) (A) (A) (A) (A) (A)
                 (A) (A) (A) (A) (A) (A) (A) (A) (A) (A) (A) (A)
                 (A) (A) (A) (A) (A) (A) (A) (A) (A) (A) (A) (A)
                 (A) (A) (A) (A) (A) (A) (A) (A) (A) (A) (A) (A)
                 (A) (A) (A) (A) (A) (A) (A) (A) (A) (A) (A) (A)
                 (A) (A) (A) (A) (A) (A) (A) (A) (A) (A) (A) (A)
                 (A) (A) (A) (A) (A) (A) (A) (A) (A) (A) (A) (A)
                 (A) (A) (A) (A) (A) (A) (A) (A) (A) (A) (A) (A)
                 (A) (A)
 The electronic state is 1-A.
     Natural Orbital Coefficients:
                           1         2         3         4         5
     Eigenvalues --     2.00000   2.00000   2.00000   2.00000   2.00000
   1 1   C  1S         -0.23266  -0.07255   0.06610   0.03682  -0.16882
   2        2S          0.30846   0.09345  -0.02676  -0.01856   0.02127
   3        3S          0.61258  -0.03840  -0.07485  -0.18348   0.05928
   4        4S         -1.21859  -0.06346   0.06609  -0.10929  -0.11232
   5        5PX         0.09228  -0.01131   0.00580  -0.02189  -0.01963
   6        5PY         0.06574   0.01440   0.02799   0.11095   0.05844
   7        5PZ         0.00921  -0.00505  -0.19864  -0.04183  -0.01158
   8        6PX        -0.11347  -0.12765  -0.05595  -0.00734   0.01101
   9        6PY        -0.40160   0.14749   0.07204   0.08139  -0.04356
  10        6PZ         0.00480  -0.00367  -0.13550  -0.02492  -0.01909
  11        7PX         0.12959  -0.02482  -0.00259  -0.02514  -0.02230
  12        7PY         0.11461   0.04216  -0.01424   0.06333   0.04060
  13        7PZ         0.00070  -0.00057  -0.01950  -0.00275  -0.00750
  14        8D 0       -0.00633  -0.00310   0.00096  -0.00259  -0.00030
  15        8D+1        0.00047   0.00033   0.00781   0.00380  -0.01440
  16        8D-1       -0.00115  -0.00027  -0.00736  -0.00230   0.01185
  17        8D+2        0.00373  -0.00401   0.00192   0.00864   0.00405
  18        8D-2        0.00517  -0.00252   0.00067   0.00507   0.00074
  19        9D 0        0.00846   0.00176  -0.00139  -0.00431  -0.00174
  20        9D+1        0.00087   0.00018   0.00025   0.00176  -0.01210
  21        9D-1       -0.00016   0.00006  -0.00004  -0.00012   0.00223
  22        9D+2       -0.11019   0.05417   0.02082   0.00366  -0.02636
  23        9D-2       -0.06740  -0.02023   0.01522  -0.02146  -0.02360
  24 2   C  1S         -0.01437   0.02553   0.03092  -0.10218  -0.03478
  25        2S          0.02113   0.01475   0.01223   0.13838   0.01674
  26        3S         -0.04628  -0.00290  -0.01427   0.25268   0.05926
  27        4S          0.98050  -0.03341  -0.03351  -0.05973   0.04053
  28        5PX         0.09718   0.07402  -0.02089  -0.06737   0.04258
  29        5PY        -0.06101   0.01697   0.01706  -0.07768  -0.01798
  30        5PZ        -0.00600  -0.00608  -0.15435  -0.07051   0.24388
  31        6PX         0.02932  -0.15075  -0.04297  -0.08244  -0.00089
  32        6PY         0.10765  -0.01105  -0.01281  -0.08531  -0.00201
  33        6PZ        -0.00340  -0.00355  -0.09268  -0.03888   0.12880
  34        7PX         0.10078  -0.03381   0.01419  -0.03490  -0.02592
  35        7PY        -0.17452  -0.00218   0.00077  -0.01140  -0.01254
  36        7PZ        -0.00077  -0.00033  -0.01057  -0.00314   0.01129
  37        8D 0       -0.00475  -0.00079   0.00025  -0.00369  -0.00072
  38        8D+1        0.00089  -0.00014  -0.01195  -0.00021  -0.01278
  39        8D-1        0.00024   0.00020   0.00106   0.00263  -0.01212
  40        8D+2        0.02171   0.00651  -0.00079   0.00235   0.00329
  41        8D-2       -0.00239  -0.00564   0.00160   0.01263   0.00058
  42        9D 0       -0.00166  -0.00256   0.00053   0.00571   0.00213
  43        9D+1        0.00028   0.00013  -0.00275   0.00015  -0.00261
  44        9D-1        0.00013   0.00005  -0.00192   0.00101  -0.00645
  45        9D+2       -0.03952   0.00106  -0.00193   0.00842  -0.00261
  46        9D-2       -0.00409   0.03976   0.01652   0.01126  -0.00047
  47 3   C  1S         -0.08530  -0.12941  -0.12111   0.00650   0.28275
  48        2S         -0.01348   0.21744  -0.03956   0.08009  -0.00785
  49        3S         -0.15143   0.29594   0.05990  -0.12317  -0.16485
  50        4S          0.96203   0.16776  -0.09033   0.31973   0.11648
  51        5PX         0.02098   0.06003  -0.02292   0.01158   0.01684
  52        5PY         0.15085  -0.09608  -0.03557  -0.19022  -0.02959
  53        5PZ         0.02122   0.00458   0.12461   0.03302  -0.18216
  54        6PX        -0.10833   0.07904  -0.04438   0.21874   0.06080
  55        6PY        -0.49833   0.13523   0.06801   0.14561  -0.04015
  56        6PZ         0.01063   0.00191   0.05865   0.01661  -0.09812
  57        7PX        -0.04579  -0.02475   0.02194  -0.03567   0.01091
  58        7PY         0.17263   0.05415  -0.04313   0.05288   0.06263
  59        7PZ         0.00074   0.00011  -0.00594   0.00244  -0.01920
  60        8D 0       -0.00365  -0.01471   0.00137  -0.00789  -0.00109
  61        8D+1        0.00005   0.00007  -0.01242   0.00116  -0.01217
  62        8D-1        0.00003  -0.00068  -0.02621  -0.00488   0.00250
  63        8D+2       -0.02125   0.00677  -0.00172   0.01572   0.00385
  64        8D-2        0.00228  -0.00648  -0.00147   0.00687  -0.00029
  65        9D 0       -0.01713  -0.01395   0.00394  -0.01730  -0.00238
  66        9D+1       -0.00099  -0.00063  -0.01734  -0.00327   0.00595
  67        9D-1        0.00036   0.00017  -0.00844  -0.00081  -0.00108
  68        9D+2        0.10059  -0.06390  -0.04842   0.00910   0.02275
  69        9D-2        0.13695  -0.04157   0.03469  -0.12764  -0.03833
  70 4   C  1S          0.03110   0.02258  -0.03656  -0.09031   0.02467
  71        2S          0.01015  -0.05040  -0.00744   0.12072  -0.00034
  72        3S         -0.22453   0.01965  -0.06567   0.17588   0.02669
  73        4S         -0.77760   0.06192   0.00142  -0.01432   0.01280
  74        5PX        -0.10177  -0.04251   0.00350   0.11098   0.00922
  75        5PY         0.09857   0.01960   0.02176   0.05907  -0.01418
  76        5PZ        -0.01137  -0.00374   0.03523  -0.05140   0.31327
  77        6PX         0.12821  -0.05225  -0.03376  -0.01109   0.01014
  78        6PY         0.18246  -0.16702   0.00150  -0.19956  -0.03062
  79        6PZ        -0.00704  -0.00121   0.02994  -0.02639   0.18245
  80        7PX        -0.13438  -0.00340   0.00803   0.00217  -0.01377
  81        7PY         0.07892  -0.03535   0.02031   0.00961  -0.03471
  82        7PZ        -0.00027   0.00030   0.01213  -0.00003   0.01193
  83        8D 0        0.00181   0.00165   0.00012  -0.00530  -0.00049
  84        8D+1       -0.00024  -0.00024  -0.00341  -0.00283   0.01141
  85        8D-1       -0.00015   0.00005  -0.01015  -0.00185   0.00491
  86        8D+2        0.01433   0.00694  -0.00094  -0.00167   0.00154
  87        8D-2       -0.00206  -0.00245   0.00085   0.00572  -0.00089
  88        9D 0       -0.00568   0.00761  -0.00082  -0.00125  -0.00145
  89        9D+1       -0.00013   0.00027  -0.00092  -0.00033   0.00466
  90        9D-1       -0.00021   0.00032   0.00249  -0.00003   0.00615
  91        9D+2        0.00165  -0.00720  -0.00657  -0.06678   0.00315
  92        9D-2        0.03996  -0.05456  -0.00146  -0.05462  -0.01006
  93 5   C  1S          0.04839  -0.06635  -0.03656  -0.10995   0.10436
  94        2S          0.02499   0.08137   0.01816   0.13621   0.00507
  95        3S         -0.25138   0.15365   0.02378   0.16878   0.01861
  96        4S         -0.67880  -0.00259  -0.02849  -0.07488   0.00255
  97        5PX        -0.04607   0.11118  -0.00319   0.03810  -0.01683
  98        5PY        -0.13108   0.03750   0.00044   0.07712   0.01616
  99        5PZ         0.00893   0.00604   0.34317   0.04064  -0.00475
 100        6PX        -0.35745   0.04872  -0.03795   0.30124   0.07979
 101        6PY        -0.02921   0.05186   0.00404   0.09727   0.01802
 102        6PZ         0.00382   0.00411   0.20086   0.02381   0.01150
 103        7PX         0.08120   0.06018  -0.01473   0.03687   0.03694
 104        7PY        -0.11812   0.00855  -0.00310  -0.00507   0.00204
 105        7PZ         0.00034   0.00080   0.03408   0.00379   0.00624
 106        8D 0        0.00165  -0.00240  -0.00070  -0.00401   0.00037
 107        8D+1        0.00080   0.00042   0.00050   0.00165  -0.00892
 108        8D-1        0.00067   0.00010   0.00798   0.00091  -0.00328
 109        8D+2       -0.00638  -0.00192   0.00145   0.01005   0.00187
 110        8D-2       -0.00305   0.01109   0.00011   0.00351  -0.00153
 111        9D 0       -0.00481   0.00946   0.00063   0.00417   0.00118
 112        9D+1        0.00057   0.00084   0.01536   0.00291  -0.00094
 113        9D-1       -0.00045   0.00000  -0.00798  -0.00156   0.00598
 114        9D+2        0.06032  -0.01423   0.00279  -0.00602  -0.01708
 115        9D-2       -0.09452   0.01283  -0.00494   0.10008   0.02507
 116 6   C  1S          0.03415  -0.02975  -0.18419  -0.18117   0.12444
 117        2S         -0.04821  -0.14157  -0.00006   0.09599   0.01975
 118        3S         -0.27250  -0.13561  -0.00778   0.00579   0.04957
 119        4S          0.98456  -0.06220   0.05312   0.04742  -0.02041
 120        5PX         0.00337   0.06762   0.00294   0.01601   0.01909
 121        5PY        -0.10979   0.04787  -0.02825  -0.01608   0.00861
 122        5PZ        -0.00050  -0.00568   0.09318  -0.00813   0.04062
 123        6PX        -0.16818  -0.05126  -0.00930   0.22453   0.04753
 124        6PY         0.16719  -0.16563   0.01802  -0.15594  -0.03702
 125        6PZ        -0.00084  -0.00126   0.07652   0.00045   0.03438
 126        7PX         0.05200   0.00317   0.00280  -0.00316   0.01960
 127        7PY         0.01227  -0.05722   0.01883  -0.03467  -0.04186
 128        7PZ        -0.00132   0.00025   0.01278  -0.00157   0.02583
 129        8D 0       -0.00174   0.00855  -0.00066  -0.00929  -0.00022
 130        8D+1        0.00013   0.00113   0.03443   0.00328   0.01358
 131        8D-1       -0.00104   0.00036   0.01026  -0.00258   0.02905
 132        8D+2       -0.00155   0.00654   0.00143   0.00601   0.00062
 133        8D-2       -0.00604  -0.01336   0.00109   0.01080  -0.00033
 134        9D 0       -0.00651  -0.00416  -0.00429  -0.00919   0.00392
 135        9D+1        0.00013   0.00004   0.02252   0.00080   0.00832
 136        9D-1       -0.00048  -0.00036   0.00674  -0.00216   0.01412
 137        9D+2       -0.10274   0.06380  -0.01395   0.08210   0.01572
 138        9D-2       -0.06977   0.04865   0.01553  -0.02300  -0.01491
 139 7   N  1S          0.07578  -0.03505   0.04784   0.01630  -0.08087
 140        2S         -0.05720   0.12676   0.05251  -0.04799  -0.02511
 141        3S         -0.05889   0.26671   0.07974  -0.01116  -0.02571
 142        4S         -0.20488   0.12293  -0.00853   0.01194  -0.02465
 143        5PX         0.01080  -0.21562   0.04414  -0.16489  -0.03176
 144        5PY        -0.05467   0.07613  -0.09864   0.18776   0.05600
 145        5PZ         0.00027   0.00492  -0.01143   0.03598  -0.13261
 146        6PX         0.01340   0.06678  -0.03763   0.11760   0.03077
 147        6PY        -0.06001  -0.00721  -0.03336   0.04855   0.01844
 148        6PZ         0.00128   0.00289  -0.00468   0.02171  -0.08705
 149        7PX        -0.01423   0.11672  -0.04851   0.11994   0.02780
 150        7PY        -0.03972  -0.02200   0.01826  -0.02314  -0.00838
 151        7PZ         0.00056   0.00024   0.00143   0.00173  -0.00880
 152        8D 0        0.00057  -0.00282  -0.00017   0.00060   0.00120
 153        8D+1       -0.00162  -0.00007  -0.00801  -0.00105   0.01056
 154        8D-1        0.00057  -0.00002   0.00065   0.00009  -0.00399
 155        8D+2       -0.00673   0.00500  -0.00194   0.00825   0.00083
 156        8D-2       -0.00443  -0.00032  -0.00203   0.01162   0.00381
 157        9D 0        0.00157  -0.01144   0.01011  -0.01914  -0.00483
 158        9D+1       -0.00261  -0.00052  -0.01619  -0.00348   0.01945
 159        9D-1        0.00094   0.00005   0.00109   0.00064  -0.00809
 160        9D+2       -0.01444   0.02380  -0.00767   0.03636   0.00554
 161        9D-2       -0.02320  -0.00485   0.01167  -0.00348  -0.00385
 162 8   N  1S          0.01020   0.03169   0.05343  -0.00815  -0.07663
 163        2S         -0.03708  -0.10236  -0.07286   0.05531   0.01709
 164        3S         -0.04621  -0.25371  -0.08330  -0.01958   0.00943
 165        4S          0.06520  -0.20968   0.03337  -0.11839  -0.01561
 166        5PX        -0.02658   0.05136  -0.15061   0.28189   0.07994
 167        5PY        -0.05924   0.00325  -0.01183   0.05355   0.01820
 168        5PZ        -0.01456   0.00187  -0.05227   0.00517   0.06108
 169        6PX        -0.00080   0.09542  -0.07010   0.17123   0.04452
 170        6PY        -0.00644  -0.03113  -0.00703  -0.00168   0.00624
 171        6PZ        -0.00766   0.00070  -0.02038  -0.00071   0.05024
 172        7PX        -0.00885   0.02554  -0.00276   0.01166   0.00024
 173        7PY         0.01053  -0.01318   0.00076  -0.00468  -0.00040
 174        7PZ        -0.00147  -0.00018  -0.00228  -0.00237   0.01819
 175        8D 0        0.00037   0.00173  -0.00472   0.00882   0.00241
 176        8D+1        0.00044  -0.00031   0.00220  -0.00197   0.00480
 177        8D-1       -0.00015   0.00010  -0.00085   0.00066  -0.00166
 178        8D+2        0.00178  -0.00269   0.01046  -0.01888  -0.00555
 179        8D-2        0.00386   0.00123  -0.00017   0.00089  -0.00035
 180        9D 0        0.00176   0.00784  -0.00062   0.00585   0.00105
 181        9D+1       -0.00023  -0.00010  -0.00209  -0.00056   0.00191
 182        9D-1        0.00008   0.00002   0.00003   0.00011  -0.00077
 183        9D+2       -0.00812  -0.00847   0.00180  -0.00674  -0.00205
 184        9D-2       -0.00413   0.01090   0.00168   0.00810   0.00040
 185 9   H  1S         -0.07256   0.00399   0.02064   0.01634  -0.01530
 186        2S         -0.27126   0.00318   0.02340  -0.01730  -0.03978
 187        3S          0.04496  -0.00383   0.00081  -0.00841  -0.00095
 188        4PX         0.00164   0.00270  -0.00031  -0.00111   0.00088
 189        4PY         0.00102  -0.00041  -0.00141  -0.00582   0.00006
 190        4PZ        -0.00023  -0.00021  -0.00543  -0.00249   0.00881
 191        5PX        -0.02433  -0.00402  -0.00176   0.00286  -0.00419
 192        5PY         0.06331  -0.00018  -0.00518   0.01302   0.01084
 193        5PZ        -0.00024  -0.00008  -0.00288  -0.00160   0.00709
 194 10  H  1S          0.12067   0.01595  -0.00168  -0.00043  -0.00751
 195        2S          0.24242  -0.01116  -0.01275   0.00812   0.00122
 196        3S         -0.01969   0.00549   0.00052  -0.00539   0.00172
 197        4PX         0.00527  -0.00157   0.00028   0.00409  -0.00074
 198        4PY         0.00018   0.00004   0.00032   0.00082   0.00020
 199        4PZ        -0.00041  -0.00013   0.00105  -0.00179   0.01089
 200        5PX         0.05496  -0.00701  -0.00391  -0.00635   0.00257
 201        5PY        -0.02219  -0.00335  -0.00090  -0.01873   0.00026
 202        5PZ        -0.00035  -0.00002  -0.00098  -0.00116   0.00722
 203 11  H  1S          0.10754   0.03095   0.00720   0.01301  -0.01784
 204        2S          0.18602  -0.00170  -0.00084   0.01154  -0.02249
 205        3S         -0.00523  -0.00542  -0.00177  -0.00283  -0.00197
 206        4PX        -0.00210   0.00166   0.00012  -0.00026  -0.00030
 207        4PY         0.00514   0.00492   0.00110   0.00604  -0.00089
 208        4PZ         0.00030   0.00023   0.01241   0.00152  -0.00022
 209        5PX        -0.02337   0.00061   0.00031   0.01203   0.00713
 210        5PY         0.04100  -0.00481  -0.00165  -0.00065  -0.00339
 211        5PZ        -0.00021   0.00014   0.00427   0.00050   0.00250
 212 12  H  1S          0.26647   0.05045   0.00406   0.04649   0.03470
 213        2S          0.46351   0.03897  -0.01392   0.09675   0.07178
 214        3S         -0.04737  -0.00238   0.00553  -0.00384  -0.00354
 215        4PX        -0.01539  -0.00471   0.00010  -0.00178  -0.00254
 216        4PY        -0.01354  -0.00347   0.00054   0.00153  -0.00030
 217        4PZ         0.00032  -0.00019  -0.00782  -0.00153  -0.00070
 218        5PX        -0.06041  -0.01016   0.00066  -0.01555  -0.00662
 219        5PY        -0.07562  -0.00002   0.00157  -0.02245  -0.01525
 220        5PZ        -0.00013  -0.00024  -0.00856  -0.00145   0.00077
 221 13  N  1S         -0.02612   0.09241  -0.00970  -0.01225  -0.06644
 222        2S          0.11493  -0.22617   0.01081   0.16782  -0.00324
 223        3S          0.14405  -0.26069   0.00623   0.15757   0.00639
 224        4S         -0.20680   0.00339   0.00112  -0.00467  -0.00455
 225        5PX        -0.00860  -0.07167   0.01410  -0.03774  -0.01258
 226        5PY        -0.05503   0.00610   0.00792   0.03929   0.00044
 227        5PZ         0.00815  -0.01649  -0.33961  -0.01953  -0.31137
 228        6PX         0.02463  -0.06465   0.00366   0.03077  -0.00020
 229        6PY         0.01320  -0.05066   0.00486   0.03168   0.00060
 230        6PZ         0.00575  -0.01150  -0.23942  -0.01418  -0.21638
 231        7PX        -0.02965   0.00210   0.00000   0.00382  -0.00161
 232        7PY        -0.02075   0.00155  -0.00145   0.00573   0.00251
 233        7PZ         0.00175  -0.00228  -0.06301  -0.00229  -0.05818
 234        8D 0       -0.00358   0.00678  -0.00035  -0.00445   0.00002
 235        8D+1        0.00002  -0.00017   0.00183  -0.00012  -0.00018
 236        8D-1       -0.00003  -0.00016   0.00081  -0.00030   0.00054
 237        8D+2        0.00139   0.00128   0.00082   0.00293   0.00045
 238        8D-2       -0.00151  -0.00458   0.00068   0.00089  -0.00034
 239        9D 0        0.01510  -0.01418  -0.00008   0.01081   0.00003
 240        9D+1       -0.00005  -0.00026   0.00371  -0.00056   0.00269
 241        9D-1       -0.00002  -0.00018   0.00381  -0.00034   0.00211
 242        9D+2        0.01047  -0.00788   0.00053  -0.00478  -0.00112
 243        9D-2        0.01202  -0.01378  -0.00007   0.01988   0.00155
 244 14  H  1S          0.05549  -0.05113  -0.00241   0.12423   0.01033
 245        2S          0.03794  -0.01122  -0.00072   0.04375   0.00924
 246        3S         -0.00210  -0.00351   0.00208   0.00298  -0.00107
 247        4PX         0.00670  -0.01174   0.00031   0.01412   0.00053
 248        4PY        -0.00263   0.00341   0.00045  -0.00331  -0.00038
 249        4PZ         0.00034  -0.00070  -0.01529  -0.00092  -0.01330
 250        5PX         0.00906  -0.00620  -0.00025   0.00992   0.00284
 251        5PY        -0.00170  -0.00060   0.00015  -0.00647  -0.00042
 252        5PZ         0.00021  -0.00058  -0.01355  -0.00114  -0.00919
 253 15  H  1S          0.09659  -0.12426  -0.00104   0.03987  -0.00313
 254        2S          0.03207  -0.03592  -0.00919  -0.00860   0.00256
 255        3S         -0.00731  -0.00002   0.00053  -0.00221  -0.00137
 256        4PX        -0.00126  -0.00052   0.00030  -0.00114  -0.00040
 257        4PY         0.01075  -0.01684   0.00053   0.00952  -0.00010
 258        4PZ         0.00038  -0.00068  -0.01462  -0.00073  -0.01390
 259        5PX        -0.00632   0.00440  -0.00094   0.00400   0.00166
 260        5PY         0.00394  -0.00799  -0.00327  -0.00189   0.00137
 261        5PZ         0.00038  -0.00053  -0.01212  -0.00050  -0.01208
                           6         7         8         9        10
     Eigenvalues --     2.00000   2.00000   2.00000   2.00000   2.00000
   1 1   C  1S          0.04029   0.12635   0.39127   0.07454   0.60533
   2        2S         -0.02523  -0.00253   0.04067   0.04296   0.10260
   3        3S         -0.11502  -0.04351   0.03416   0.20549  -0.03203
   4        4S          0.27459  -0.16177  -0.10406   0.13816  -0.06853
   5        5PX         0.04319   0.02572   0.01685  -0.13267   0.07566
   6        5PY        -0.03002   0.00540  -0.05448  -0.09500  -0.09616
   7        5PZ         0.09954   0.11172  -0.07778  -0.01970  -0.00370
   8        6PX        -0.16655   0.09059   0.05237  -0.04123   0.12835
   9        6PY         0.21062  -0.09732  -0.06638   0.04347  -0.10306
  10        6PZ         0.06000   0.05960  -0.04154  -0.01089  -0.00474
  11        7PX        -0.01183   0.03019   0.01322  -0.03163  -0.01241
  12        7PY        -0.05020   0.00720   0.01159   0.03877   0.01388
  13        7PZ         0.00727   0.00698  -0.00675  -0.00142  -0.00048
  14        8D 0       -0.00005   0.00033  -0.00101  -0.00089  -0.00343
  15        8D+1       -0.00831  -0.00637  -0.00249  -0.00002   0.00002
  16        8D-1        0.00452  -0.00265   0.01033  -0.00030  -0.00174
  17        8D+2       -0.00491   0.00031  -0.00373  -0.00459  -0.00431
  18        8D-2        0.00066   0.00003  -0.00188  -0.00409   0.00561
  19        9D 0       -0.00188   0.00295   0.00891   0.00885   0.00715
  20        9D+1       -0.00306  -0.00167  -0.00463  -0.00262   0.00035
  21        9D-1        0.00008  -0.00164   0.00276  -0.00091  -0.00044
  22        9D+2        0.10007  -0.04243  -0.01706   0.01913  -0.02727
  23        9D-2        0.03503  -0.00715   0.00217   0.03160  -0.02476
  24 2   C  1S          0.16469  -0.01306  -0.04741  -0.22450  -0.01872
  25        2S          0.02658  -0.02124  -0.03822  -0.07584  -0.00713
  26        3S         -0.09356  -0.05353  -0.05142   0.01963  -0.02147
  27        4S         -0.14625   0.03233   0.04042   0.14839   0.16901
  28        5PX        -0.07337  -0.01217   0.00989   0.13759  -0.07853
  29        5PY         0.07140  -0.02115  -0.00726  -0.07864  -0.08217
  30        5PZ         0.15526   0.13029   0.02401  -0.00214   0.00081
  31        6PX        -0.19103   0.14945   0.07291  -0.05339   0.14536
  32        6PY        -0.02690   0.04815   0.02970   0.03022   0.02994
  33        6PZ         0.08666   0.06865   0.01516  -0.00329  -0.00010
  34        7PX         0.00481   0.02965   0.00617  -0.10142  -0.04660
  35        7PY         0.01658   0.00418  -0.00165  -0.01820  -0.02179
  36        7PZ         0.00648   0.00082   0.00717  -0.00071  -0.00158
  37        8D 0       -0.00100   0.00086   0.00088   0.00170  -0.00302
  38        8D+1        0.00077   0.00055  -0.00454  -0.00232  -0.00142
  39        8D-1       -0.00602  -0.00753   0.00128  -0.00114  -0.00133
  40        8D+2       -0.00466  -0.00089  -0.00353   0.00232  -0.00055
  41        8D-2        0.00171   0.00190  -0.00221  -0.01019   0.00473
  42        9D 0       -0.00182  -0.00053  -0.00415  -0.00381  -0.00855
  43        9D+1       -0.00085  -0.00225   0.00148  -0.00199  -0.00132
  44        9D-1       -0.00235  -0.00391   0.00111  -0.00097  -0.00101
  45        9D+2        0.00616   0.01004   0.00457  -0.04128   0.00428
  46        9D-2        0.06657  -0.05477  -0.02314   0.03427  -0.07658
  47 3   C  1S         -0.08074  -0.36730  -0.39905  -0.40868   0.31855
  48        2S          0.08005  -0.03833   0.00243   0.09647   0.07402
  49        3S          0.24063  -0.01524   0.04189   0.10490  -0.00183
  50        4S         -0.34877   0.25112   0.02154  -0.24424  -0.27812
  51        5PX        -0.10268   0.06406   0.02603  -0.02220  -0.04157
  52        5PY        -0.06163   0.02093   0.06987   0.02050   0.12258
  53        5PZ        -0.06239   0.07258  -0.19414   0.00363   0.03451
  54        6PX        -0.04080   0.01686  -0.01975  -0.00364  -0.09188
  55        6PY         0.28182  -0.13883  -0.07028   0.05576  -0.09038
  56        6PZ        -0.03111   0.03956  -0.10293   0.00617   0.01774
  57        7PX         0.01253  -0.04078  -0.00461   0.02145   0.08000
  58        7PY        -0.07934   0.01610   0.04447   0.03867   0.07927
  59        7PZ        -0.00528  -0.00712  -0.00128  -0.00270  -0.00201
  60        8D 0       -0.00177   0.00056  -0.00030  -0.00405  -0.00094
  61        8D+1       -0.00257  -0.01257   0.00909  -0.00635  -0.00381
  62        8D-1        0.01080   0.00536   0.00142  -0.00222  -0.00264
  63        8D+2       -0.00979   0.00335  -0.00140   0.00129  -0.00487
  64        8D-2        0.00210  -0.00092  -0.00216  -0.01135   0.00875
  65        9D 0        0.00613  -0.00837  -0.00653  -0.00669   0.00169
  66        9D+1        0.00613   0.00016   0.00682   0.00240  -0.00309
  67        9D-1        0.00092  -0.00353   0.00466  -0.00473  -0.00269
  68        9D+2       -0.07763   0.02632   0.04212   0.05663   0.02936
  69        9D-2        0.03458   0.00626   0.02138  -0.00961   0.01095
  70 4   C  1S         -0.13987   0.06245   0.06696  -0.04687  -0.09278
  71        2S          0.04351   0.00745  -0.00712  -0.04913   0.13598
  72        3S         -0.02374   0.01493  -0.00855  -0.02884   0.28570
  73        4S          0.02796  -0.01483   0.04753  -0.02937  -0.06775
  74        5PX        -0.03376   0.03031   0.01853  -0.05255   0.03473
  75        5PY         0.00941  -0.01535  -0.05508  -0.06308  -0.00937
  76        5PZ         0.11679   0.13565   0.01399   0.03479   0.03217
  77        6PX        -0.05945   0.06142   0.02581  -0.00694   0.07708
  78        6PY        -0.15348   0.18450   0.10210  -0.08185   0.06779
  79        6PZ         0.05649   0.05982   0.02552   0.01605   0.01335
  80        7PX         0.02044   0.01139  -0.00736  -0.06640  -0.02012
  81        7PY         0.02276   0.03466  -0.01253  -0.14101  -0.07008
  82        7PZ        -0.00038   0.00208   0.00129   0.00080   0.00157
  83        8D 0       -0.00226   0.00076   0.00009  -0.00020  -0.00317
  84        8D+1        0.00644   0.00702  -0.00062   0.00068   0.00090
  85        8D-1        0.00252  -0.00323   0.00786  -0.00313  -0.00340
  86        8D+2       -0.00805   0.00025  -0.00281   0.00377  -0.00069
  87        8D-2        0.00166  -0.00092  -0.00215  -0.00447  -0.00046
  88        9D 0        0.00216   0.00139   0.00175  -0.00098   0.00686
  89        9D+1       -0.00111  -0.00404   0.00662  -0.00163  -0.00255
  90        9D-1       -0.00149  -0.00383   0.00642  -0.00138  -0.00181
  91        9D+2       -0.04382   0.04403   0.04072  -0.00370  -0.00332
  92        9D-2       -0.03366   0.04662   0.02143  -0.02286   0.04717
  93 5   C  1S         -0.18939  -0.04864  -0.16878   0.11110  -0.09239
  94        2S          0.11472  -0.04791  -0.02738   0.03279   0.00304
  95        3S         -0.00693   0.01424  -0.07350  -0.11952  -0.00723
  96        4S          0.06506  -0.06355   0.04600   0.12024   0.26457
  97        5PX         0.06481  -0.03024  -0.02966  -0.00230  -0.01835
  98        5PY         0.03462  -0.02176  -0.01846   0.05003   0.02317
  99        5PZ        -0.07965   0.09563  -0.17266   0.06163   0.07023
 100        6PX         0.12772  -0.11764  -0.05439   0.13012  -0.06283
 101        6PY         0.01833  -0.00516  -0.04556  -0.06758  -0.07698
 102        6PZ        -0.05148   0.03953  -0.07707   0.03396   0.03402
 103        7PX         0.00335  -0.02928   0.02075   0.07953   0.03436
 104        7PY         0.03096  -0.03388   0.01280   0.05684   0.05188
 105        7PZ        -0.00874   0.00387  -0.00806   0.00454   0.00481
 106        8D 0       -0.00458   0.00082  -0.00030  -0.00221  -0.00070
 107        8D+1       -0.00479  -0.00423  -0.00044  -0.00258  -0.00190
 108        8D-1       -0.00116   0.00594  -0.00942   0.00164   0.00274
 109        8D+2        0.00086   0.00034  -0.00164   0.00116  -0.00439
 110        8D-2        0.00664  -0.00414  -0.00294   0.00646  -0.00300
 111        9D 0       -0.00135   0.00210  -0.00359  -0.00056   0.00050
 112        9D+1       -0.00799  -0.00529   0.00146  -0.00211  -0.00045
 113        9D-1        0.00153  -0.00365   0.00848  -0.00101  -0.00343
 114        9D+2        0.01754  -0.00644   0.01414   0.01281  -0.00097
 115        9D-2        0.03225  -0.03403  -0.01182   0.02813  -0.02303
 116 6   C  1S         -0.32281  -0.36325  -0.25373   0.44668   0.13123
 117        2S          0.08425  -0.03800   0.01238   0.09308   0.04949
 118        3S          0.04221   0.06847   0.08830   0.09552   0.03928
 119        4S         -0.01236   0.03287  -0.03637  -0.17976  -0.11920
 120        5PX        -0.06865   0.03843   0.00983  -0.04469   0.02672
 121        5PY        -0.03588   0.03163   0.03762  -0.02919   0.08028
 122        5PZ         0.05254   0.15373  -0.15407   0.06380   0.07164
 123        6PX         0.10163  -0.08743  -0.01715   0.09534  -0.03267
 124        6PY        -0.10478   0.14975   0.11032  -0.09407   0.00067
 125        6PZ         0.01165   0.05923  -0.05857   0.02871   0.03254
 126        7PX        -0.01582  -0.02053   0.00552   0.07096   0.01616
 127        7PY         0.02893   0.02079  -0.02278  -0.07187  -0.02051
 128        7PZ         0.00137   0.00088   0.00957   0.00318   0.00013
 129        8D 0       -0.00799   0.00321   0.00024  -0.00494  -0.00192
 130        8D+1       -0.00963  -0.00011  -0.00042   0.00278   0.00228
 131        8D-1        0.00335   0.00208   0.01038   0.00064  -0.00038
 132        8D+2        0.01032  -0.00946  -0.00212   0.01249  -0.00739
 133        8D-2        0.00487  -0.00234  -0.00144   0.00321  -0.00440
 134        9D 0       -0.01716   0.00143   0.00136   0.00315  -0.00634
 135        9D+1        0.00021   0.01294  -0.01368   0.00596   0.00708
 136        9D-1        0.00612   0.01190  -0.00626   0.00481   0.00428
 137        9D+2        0.05957  -0.05899  -0.01784   0.05740  -0.00212
 138        9D-2       -0.00442  -0.00054  -0.01626  -0.03704   0.05276
 139 7   N  1S          0.03705   0.02007   0.02890   0.07218  -0.18549
 140        2S          0.05170  -0.02531  -0.00679   0.04031   0.02109
 141        3S          0.08944  -0.05763  -0.00420   0.02174  -0.01979
 142        4S          0.05979  -0.02666   0.02210   0.11295  -0.01151
 143        5PX         0.03050  -0.05362  -0.02745  -0.07280   0.11949
 144        5PY        -0.20565   0.05549  -0.01440  -0.05506   0.03631
 145        5PZ        -0.07506  -0.18211   0.11701  -0.08499  -0.02838
 146        6PX        -0.06085   0.00727   0.01136  -0.00988  -0.00767
 147        6PY        -0.09083   0.01666  -0.02656  -0.04812   0.03714
 148        6PZ        -0.04536  -0.09895   0.05560  -0.04682  -0.01525
 149        7PX        -0.05738   0.04146   0.01071   0.00945  -0.07621
 150        7PY         0.02830  -0.02147  -0.01271   0.00684   0.01123
 151        7PZ        -0.00339  -0.00355  -0.00130  -0.00267  -0.00013
 152        8D 0       -0.00152  -0.00111  -0.00048  -0.00205  -0.00146
 153        8D+1        0.00181  -0.01301   0.02020  -0.00446  -0.00344
 154        8D-1        0.00001   0.00452  -0.00673   0.00123   0.00093
 155        8D+2       -0.00319   0.00194  -0.00195   0.00109   0.00147
 156        8D-2       -0.00631  -0.00112  -0.00394  -0.00602  -0.00129
 157        9D 0        0.00931  -0.00458  -0.00483  -0.00944  -0.00148
 158        9D+1        0.00637  -0.01170   0.02537  -0.00127  -0.00484
 159        9D-1       -0.00072   0.00464  -0.00910   0.00004   0.00139
 160        9D+2       -0.00115   0.00180   0.00044   0.01152  -0.00842
 161        9D-2        0.01605  -0.00824  -0.01114  -0.00784  -0.00983
 162 8   N  1S         -0.00854   0.07868   0.12444  -0.02832   0.03951
 163        2S         -0.12043   0.13235   0.02398   0.05439   0.01045
 164        3S         -0.13591   0.16324  -0.00111   0.03203   0.01187
 165        4S          0.01668  -0.00864  -0.02124  -0.05004   0.07882
 166        5PX        -0.22629   0.15074   0.02016   0.02774  -0.08684
 167        5PY        -0.07416  -0.02912  -0.04510  -0.07226   0.06945
 168        5PZ        -0.01439  -0.18243   0.22538  -0.07189  -0.03803
 169        6PX        -0.10876   0.06405   0.02192   0.02484  -0.04547
 170        6PY        -0.03830  -0.00844  -0.01946  -0.03678   0.04207
 171        6PZ         0.00000  -0.07752   0.10765  -0.03105  -0.01597
 172        7PX        -0.00057   0.00102   0.00409   0.01072  -0.00847
 173        7PY        -0.00161   0.00073  -0.00135  -0.00728   0.00381
 174        7PZ         0.00461  -0.00265   0.01245   0.00003  -0.00108
 175        8D 0       -0.00608   0.00460   0.00109   0.00128  -0.00421
 176        8D+1        0.00422   0.01483  -0.01288   0.00652   0.00261
 177        8D-1       -0.00141  -0.00505   0.00439  -0.00223  -0.00090
 178        8D+2        0.01750  -0.00824  -0.00018   0.00189   0.00255
 179        8D-2        0.00511   0.00305   0.00298   0.00589  -0.00855
 180        9D 0       -0.00091  -0.00034   0.00134  -0.00009  -0.00136
 181        9D+1        0.00089   0.00022   0.00126   0.00095  -0.00051
 182        9D-1       -0.00013  -0.00010  -0.00033  -0.00043   0.00007
 183        9D+2        0.00468  -0.00083  -0.00280   0.00089  -0.00040
 184        9D-2        0.00391  -0.00184  -0.00027   0.00116  -0.00588
 185 9   H  1S          0.08140  -0.02522  -0.01966  -0.11593  -0.04955
 186        2S          0.11433  -0.03178   0.00029  -0.13464  -0.07301
 187        3S          0.00220  -0.00455   0.00298   0.00284   0.00533
 188        4PX        -0.00092  -0.00063  -0.00033   0.00128  -0.00251
 189        4PY        -0.00387   0.00144   0.00230   0.00770   0.00211
 190        4PZ         0.00541   0.00438   0.00117  -0.00010  -0.00006
 191        5PX        -0.00099   0.00707   0.00345  -0.01764   0.01424
 192        5PY        -0.02557   0.00715  -0.00314   0.02365   0.01493
 193        5PZ         0.00319   0.00204   0.00214  -0.00011  -0.00036
 194 10  H  1S          0.04475  -0.02418  -0.03479   0.01079   0.04490
 195        2S          0.01366  -0.02874  -0.05920   0.04918   0.04064
 196        3S          0.00062  -0.00052  -0.00189  -0.00337   0.00440
 197        4PX         0.00417  -0.00091  -0.00208  -0.00232   0.00558
 198        4PY        -0.00247   0.00080  -0.00033  -0.00150  -0.00186
 199        4PZ         0.00404   0.00452   0.00072   0.00116   0.00104
 200        5PX        -0.00695  -0.00102  -0.00804   0.01383   0.00345
 201        5PY        -0.01223   0.01424   0.01434  -0.00362   0.00485
 202        5PZ         0.00200   0.00057   0.00330   0.00008  -0.00053
 203 11  H  1S          0.04840  -0.01111   0.00525  -0.02521  -0.00816
 204        2S          0.02552  -0.00452   0.00725  -0.04917  -0.07732
 205        3S          0.00590  -0.00581   0.00539   0.00222   0.01958
 206        4PX         0.00149  -0.00116  -0.00053   0.00113  -0.00055
 207        4PY         0.00682  -0.00225  -0.00070   0.00007  -0.00055
 208        4PZ        -0.00304   0.00306  -0.00586   0.00218   0.00244
 209        5PX        -0.00272  -0.00181  -0.00053   0.00401   0.00157
 210        5PY         0.00124   0.00023   0.00231  -0.01228  -0.02085
 211        5PZ        -0.00182  -0.00153   0.00195   0.00094  -0.00031
 212 12  H  1S         -0.00066   0.01345  -0.00686  -0.11064   0.04622
 213        2S         -0.07651   0.04683  -0.00511  -0.17175   0.05600
 214        3S          0.01770  -0.00900  -0.01049  -0.00531  -0.00134
 215        4PX         0.00056   0.00011   0.00073   0.00222  -0.00012
 216        4PY        -0.00102  -0.00030  -0.00103   0.00265  -0.00389
 217        4PZ         0.00364   0.00372  -0.00249  -0.00081  -0.00027
 218        5PX         0.00074  -0.00492   0.00187   0.02795  -0.01025
 219        5PY         0.02221  -0.01051   0.00319   0.03017  -0.00273
 220        5PZ         0.00307   0.00076   0.00149  -0.00024  -0.00112
 221 13  N  1S          0.01267   0.01818   0.01652   0.04847   0.06048
 222        2S          0.09088  -0.03788   0.01551   0.06737  -0.07052
 223        3S          0.07705  -0.02836   0.02670   0.06900  -0.10604
 224        4S          0.04789  -0.01434  -0.00314   0.04794   0.02486
 225        5PX         0.00980   0.03382  -0.02116  -0.03668   0.01336
 226        5PY         0.13778  -0.11505  -0.01857   0.14955  -0.01723
 227        5PZ         0.10369   0.09935  -0.18467   0.00838   0.02788
 228        6PX         0.01808   0.00080   0.00414   0.00814  -0.02174
 229        6PY         0.03390  -0.02209   0.00137   0.02979  -0.01974
 230        6PZ         0.07314   0.06971  -0.12828   0.00544   0.01880
 231        7PX         0.02043  -0.00867  -0.00190   0.01365   0.00083
 232        7PY        -0.00040   0.00565   0.00062  -0.00253  -0.00101
 233        7PZ         0.01289   0.00618  -0.02220  -0.00387  -0.00022
 234        8D 0       -0.00295   0.00067  -0.00098  -0.00190   0.00168
 235        8D+1        0.00127   0.00386  -0.00436   0.00162   0.00187
 236        8D-1        0.00148   0.00326  -0.00318   0.00127   0.00145
 237        8D+2        0.00394  -0.00429  -0.00092   0.00563  -0.00202
 238        8D-2        0.00419  -0.00074  -0.00017   0.00165   0.00049
[...]
 ! D21   D(3,5,6,4)             -0.0045         -DE/DX =    0.0                 !
 ! D22   D(3,5,6,13)          -180.0033         -DE/DX =    0.0                 !
 ! D23   D(11,5,6,4)           179.9918         -DE/DX =    0.0                 !
 ! D24   D(11,5,6,13)           -0.007          -DE/DX =    0.0                 !
 ! D25   D(4,6,13,14)           -0.0163         -DE/DX =    0.0                 !
 ! D26   D(4,6,13,15)          180.0069         -DE/DX =    0.0                 !
 ! D27   D(5,6,13,14)         -180.0175         -DE/DX =    0.0                 !
 ! D28   D(5,6,13,15)            0.0057         -DE/DX =    0.0                 !
 --------------------------------------------------------------------------------
 GradGradGradGradGradGradGradGradGradGradGradGradGradGradGradGradGradGrad

 Leave Link  103 at Sun Aug  9 02:21:15 2020, MaxMem=   524288000 cpu:               0.1 elap:               0.0
 (Enter /home/ubuntu/g16/l9999.exe)

 ----------------------------------------------------------------------

 Electric dipole moment (input orientation):
 (Debye = 10**-18 statcoulomb cm , SI units = C m)
                  (au)            (Debye)         (10**-30 SI)
   Tot        0.321176D+00      0.816349D+00      0.272305D+01
   x          0.583474D-02      0.148304D-01      0.494690D-01
   y         -0.321123D+00     -0.816214D+00     -0.272260D+01
   z         -0.207227D-03     -0.526718D-03     -0.175694D-02

 Dipole polarizability, Alpha (input orientation).
 (esu units = cm**3 , SI units = C**2 m**2 J**-1)
 Alpha(0;0):
               (au)            (10**-24 esu)      (10**-40 SI)
   iso        0.974840D+02      0.144456D+02      0.160729D+02
   aniso      0.824823D+02      0.122226D+02      0.135995D+02
   xx         0.142604D+03      0.211317D+02      0.235121D+02
   yx         0.502554D+01      0.744708D+00      0.828599D+00
   yy         0.101677D+03      0.150669D+02      0.167642D+02
   zx        -0.182247D-03     -0.270063D-04     -0.300485D-04
   zy        -0.742769D-04     -0.110067D-04     -0.122466D-04
   zz         0.481719D+02      0.713833D+01      0.794247D+01

 ----------------------------------------------------------------------

 Dipole orientation:
     6         -1.30167082         -0.02532743         -2.71488017
     6          1.22461617          0.02003273         -3.46677447
     6         -1.71333658         -0.03116916         -0.08851764
     6          3.17226411          0.05644942         -1.69745936
     6          0.18289861          0.00444974          1.77495094
     6          2.71174308          0.04990630          0.95400330
     7         -4.19613196         -0.07579292          0.72638710
     7         -6.20119203         -0.11182859          1.36905917
     1          1.67843762          0.02688861         -5.47423392
     1          5.12323987          0.09130010         -2.36071393
     1         -0.30802892         -0.00335179          3.77183236
     1         -2.86058469         -0.05438357         -4.05272286
     7          4.66317537          0.08653428          2.62200547
     1          6.47114338          0.11852367          2.02001654
     1          4.37554335          0.08241018          4.50558796

 Electric dipole moment (dipole orientation):
 (Debye = 10**-18 statcoulomb cm , SI units = C m)
                  (au)            (Debye)         (10**-30 SI)
   Tot        0.321176D+00      0.816349D+00      0.272305D+01
   x          0.000000D+00      0.000000D+00      0.000000D+00
   y          0.000000D+00      0.000000D+00      0.000000D+00
   z          0.321176D+00      0.816349D+00      0.272305D+01

 Dipole polarizability, Alpha (dipole orientation).
 (esu units = cm**3 , SI units = C**2 m**2 J**-1)
 Alpha(0;0):
               (au)            (10**-24 esu)      (10**-40 SI)
   iso        0.974840D+02      0.144456D+02      0.160729D+02
   aniso      0.824823D+02      0.122226D+02      0.135995D+02
   xx         0.142741D+03      0.211521D+02      0.235349D+02
   yx         0.171536D+01      0.254191D+00      0.282825D+00
   yy         0.482030D+02      0.714295D+01      0.794760D+01
   zx        -0.427876D+01     -0.634046D+00     -0.705472D+00
   zy        -0.432545D-01     -0.640965D-02     -0.713170D-02
   zz         0.101508D+03      0.150419D+02      0.167364D+02

 ----------------------------------------------------------------------
 1\1\GINC-LC06-SRV\Freq\UB3LYP\Aug-CC-pVDZ\C6H6N3(1+)\UBUNTU\09-Aug-202
 0\0\\#P Geom=AllCheck Guess=TCheck SCRF=Check GenChk UB3LYP/Aug-CC-pVD
 Z Freq\\3-NH2PhN2+_UB3LYP-aug-cc-pVDZ\\1,1\C,-0.71493,1.4239,0.00004\C
 ,0.61469,1.84601,0.00001\C,-0.90751,0.03036,0.00001\C,1.66236,0.92861,
 -0.00005\C,0.11386,-0.93735,-0.00001\C,1.44417,-0.47868,0.00001\N,-2.2
 1351,-0.42467,-0.00001\N,-3.26836,-0.78398,-0.00002\H,0.83553,2.9125,-
 0.00004\H,2.68839,1.29829,-0.00014\H,-0.12672,-1.9986,-0.0001\H,-1.552
 74,2.11675,0.00011\N,2.49287,-1.34244,0.00006\H,3.44381,-1.00655,-0.00
 019\H,2.35878,-2.34179,0.\\Version=ES64L-G16RevA.03\State=1-A\HF=-396.
 259645\S2=0.\S2-1=0.\S2A=0.\RMSD=4.804e-09\RMSF=2.089e-05\ZeroPoint=0.
 1146281\Thermal=0.1225325\Dipole=0.0058347,-0.3211234,-0.0002072\Dipol
 eDeriv=0.0705521,0.0068332,-0.0000149,0.4639794,-0.1448429,0.0000086,-
 0.0000348,0.000024,-0.05097,-0.1541335,0.1124601,0.000008,0.0523828,0.
 2071253,-0.0000051,0.0000262,-0.0000224,-0.0607932,-0.7836481,-0.57611
 3,0.0000036,-0.5700578,0.2652212,-0.0000039,-0.0000056,-0.0000219,0.06
 76237,0.1536781,0.0094104,-0.0000216,0.4071648,-0.0827268,0.0000124,-0
 .0000631,0.0000204,-0.0527189,-0.0793449,0.7037898,-0.000017,-0.255230
 8,-0.0799305,0.0000082,0.0000054,0.0000181,-0.0968561,1.0863433,-1.168
 7535,0.000067,-1.2218066,0.3417191,-0.0000316,0.0001324,-0.0000556,0.1
 312983,1.8812387,0.6720407,0.0000125,0.6817832,0.4298515,0.0000023,0.0
 000415,0.0000196,0.2503424,-0.8078096,-0.3655659,-0.0000054,-0.3123173
 ,-0.0678191,-0.0000029,-0.0000183,-0.0000093,0.0790623,0.0840806,-0.00
 78796,0.0000028,-0.0011523,0.0608052,-0.0000003,0.0000139,0.0000118,0.
 1370113,0.0200366,0.0043472,0.0000079,0.0154218,0.0926827,-0.0000012,-
 0.000018,0.0000051,0.1327886,0.0560337,-0.0046344,-0.0000013,0.0122802
 ,0.0617107,-0.0000045,-0.0000322,-0.0000097,0.1638418,0.0579008,-0.008
 8583,0.0000037,-0.0171374,0.1187836,-0.0000007,0.0000141,-0.0000122,0.
 1635723,-1.0331616,0.6922866,-0.0000767,0.832943,-0.5949532,0.0000147,
 -0.0002264,0.0001256,-0.4819281,0.3320447,-0.033815,0.0000195,0.008268
 5,0.1074136,0.0000201,0.0000962,-0.0000402,0.3082732,0.1161892,-0.0355
 483,0.0000119,-0.0965215,0.2849596,-0.0000161,0.0000687,-0.0000533,0.3
 094525\Polar=142.6035093,5.0255389,101.676745,-0.0001822,-0.0000743,48
 .1718558\Quadrupole=10.8635462,1.773502,-12.6370481,-1.5871023,-0.0014
 486,0.0005206\PG=C01 [X(C6H6N3)]\NImag=0\\0.72197006,-0.06208636,0.671
 90829,-0.00002619,0.00002062,0.11894702,-0.31522388,-0.03916966,0.0000
 0649,0.66639818,-0.09715697,-0.14218447,0.00000184,0.01788007,0.743563
 58,0.00000747,0.00000207,-0.06333500,-0.00002524,-0.00000933,0.1364890
 6,-0.08104774,-0.00892419,0.00000081,-0.01764398,-0.02853075,0.0000013
 6,0.53926082,0.01929211,-0.31288393,-0.00000850,-0.06895652,-0.0107718
 9,0.00000110,-0.05620732,0.66639060,0.00000010,-0.00000793,-0.05510793
 ,0.00000101,0.00000016,0.00769110,-0.00000187,0.00001684,0.11592877,-0
 .05391068,0.00479141,0.00000342,-0.25403208,0.14380783,0.00001204,-0.0
 0591466,0.01519880,-0.00000039,0.74373344,0.04093573,0.04775531,-0.000
 00039,0.08534553,-0.22867404,-0.00000560,0.00512146,-0.03646393,0.0000
 0025,-0.01302435,0.65248786,0.00000243,0.00000018,0.00824252,0.0000107
 0,-0.00000685,-0.06063696,-0.00000061,-0.00000124,-0.00480501,-0.00003
 971,-0.00001707,0.13885825,0.02414366,0.03868246,-0.00000047,-0.037143
 29,-0.00032437,0.00000041,-0.18113863,0.10273503,0.00000238,0.00919216
 ,-0.05018490,-0.00000271,0.66406259,0.01332922,-0.04275856,-0.00000076
 ,0.01820685,-0.00265061,-0.00000072,0.12652933,-0.22589211,-0.00000536
 ,-0.03602186,-0.00264939,0.00000102,0.01003838,0.73800244,0.00000178,-
 0.00000103,0.01312406,-0.00000080,0.00000083,-0.00339207,0.00000107,-0
 .00000585,-0.04757914,-0.00000023,0.00000078,0.00527116,0.00001078,0.0
 0003520,0.11151297,-0.01210743,-0.03114669,-0.00000053,0.04128968,0.02
 571043,-0.00000184,-0.05370771,0.02609856,-0.00000035,-0.13147940,-0.0
 1321588,0.00000914,-0.28663045,-0.08919446,-0.00000611,0.73704080,-0.0
 2827404,-0.03003674,0.00000017,0.05078337,-0.03475292,0.00000018,-0.00
 580098,0.03923964,-0.00000018,-0.06450520,-0.27395387,0.00001273,-0.04
 436419,-0.15021287,-0.00000624,-0.04173178,0.68512928,0.00000012,-0.00
 000089,-0.00412922,0.00000039,-0.00000102,0.00225923,0.00000179,0.0000
 0052,0.00203668,0.00000449,0.00001049,-0.07192224,-0.00000137,-0.00000
 279,-0.06620608,-0.00000625,-0.00001272,0.15981432,-0.04915578,-0.0549
 0166,-0.00000094,0.02444891,-0.01118193,-0.00000145,-0.14423433,-0.004
 59125,-0.00000080,-0.00416913,0.00379851,0.00000101,-0.08313313,-0.004
 89909,-0.00000011,0.00361556,0.02698449,-0.00000158,1.46532602,-0.0558
 5392,-0.01896374,-0.00000028,0.00309858,-0.01426774,-0.00000080,-0.015
 37438,-0.09594584,-0.00000156,0.00135989,-0.00549604,0.00000014,0.0040
 5935,0.01869539,0.00000097,0.00883827,0.00854667,-0.00000095,0.4511123
 8,0.28205507,-0.00000128,0.00000113,-0.00683507,0.00000001,-0.00000132
 ,0.00872781,-0.00000068,-0.00000396,-0.04354690,0.00000036,-0.00000083
 ,-0.00200308,-0.00000192,0.00000166,-0.00579715,0.00000143,0.00000153,
 0.00625434,0.00001377,0.00000488,0.09174953,0.01191546,0.02442434,0.00
 000028,-0.01227279,0.00389527,0.00000069,-0.06847385,-0.04143001,-0.00
 000128,0.00389945,-0.00145552,-0.00000048,0.01922865,-0.00454875,-0.00
 000036,-0.00430715,-0.01195294,0.00000090,-1.21520933,-0.39803555,-0.0
 0001136,1.26615248,0.00785531,0.00486261,-0.00000011,-0.00353388,0.003
 61209,0.00000032,-0.03248772,0.00936187,-0.00000043,0.00068487,0.00087
 767,-0.00000012,0.00525383,-0.00591965,-0.00000036,-0.00271158,-0.0037
 9587,0.00000048,-0.40005976,-0.17246838,-0.00000329,0.42490440,0.16262
 346,0.00000019,-0.00000028,0.00461274,-0.00000016,0.00000039,-0.002245
 58,-0.00000115,0.00000017,0.01258027,0.00000001,0.00000019,0.00071532,
 0.00000050,-0.00000046,0.00406061,-0.00000040,-0.00000053,-0.00112558,
 -0.00001123,-0.00000341,-0.04225336,0.00001217,0.00000388,0.02281148,-
 0.00284021,-0.02898551,0.00000100,-0.06824769,-0.05803012,0.00000397,-
 0.00430091,-0.00084301,0.00000033,0.00753743,0.02409182,-0.00000080,-0
 .00060825,0.00057235,-0.00000007,-0.00364986,0.00306209,0.00000062,-0.
 00078553,-0.00254556,-0.00000016,-0.00027393,0.00043788,0.00000004,0.0
 7078968,0.00045346,-0.00380273,0.00000038,-0.05775727,-0.33539981,0.00
 001214,-0.00058370,0.00168481,0.00000016,-0.00538446,-0.01406219,0.000
 00102,0.00036159,0.00031492,0.,0.00285383,0.00009403,-0.00000012,-0.00
 057087,0.00014065,0.00000020,0.00036229,-0.00010843,-0.00000007,0.0607
 8177,0.35032843,-0.00000116,-0.00000010,0.00426734,0.00000626,0.000014
 58,-0.03973558,0.00000022,0.00000033,0.00558020,-0.00000114,-0.0000003
 7,0.00452888,0.00000075,-0.00000019,-0.00121178,0.00000018,-0.00000091
 ,0.00771162,-0.00000015,0.00000010,0.00194084,0.00000012,0.00000004,-0
 .00068402,-0.00000429,-0.00001333,0.02661885,-0.00144468,0.00361693,0.
 00000089,-0.01650354,-0.00922534,0.00000135,0.00105308,0.00043656,-0.0
 0000007,-0.30847863,-0.09178662,0.00002318,0.00078948,-0.00022915,0.00
 000064,-0.00104406,0.00215867,0.00000010,-0.00065365,-0.00032792,-0.00
 000015,0.00033290,0.00015644,0.00000005,0.00080261,-0.00025355,-0.0000
 0042,0.32411205,0.00390211,-0.00221858,0.00000006,0.02078190,0.0102447
 4,-0.00000133,0.00104732,-0.00100569,0.,-0.09199494,-0.09240584,0.0000
 0856,-0.00049891,-0.00559333,0.00000035,-0.02883188,-0.00543597,0.0000
 0206,-0.00050669,-0.00026395,-0.00000014,0.00034747,0.00008960,0.00000
 004,0.00008851,0.00097664,-0.00000018,0.09583933,0.09430854,0.00000060
 ,-0.00000008,0.00721934,0.00000087,0.00000035,0.00596504,-0.00000111,-
 0.00000005,0.00022303,0.00002290,0.00000975,-0.04119356,0.00000055,0.0
 0000061,0.00519455,0.00000155,-0.00000168,0.00752163,0.00000092,0.0000
 0039,-0.00150218,-0.00000050,-0.00000019,0.00040611,-0.00000024,-0.000
 00015,-0.00427872,-0.00002512,-0.00000904,0.02433843,-0.00394858,0.002
 32908,-0.00000002,-0.00069680,0.00013652,0.00000012,0.00581445,0.02428
 380,0.00000144,-0.00578839,-0.00073947,-0.00000015,-0.07298273,-0.0645
 4471,-0.00000628,0.00093850,-0.02843566,-0.00000172,0.00361776,0.00153
 714,0.00000031,-0.00109214,-0.00015139,-0.00000007,0.00009685,-0.00001
 525,0.,0.00007784,-0.00143544,0.00000020,0.07230773,0.00361992,0.00107
 644,-0.00000045,-0.00107433,0.00058080,0.00000010,-0.00539537,-0.01355
 998,-0.00000072,-0.00102946,0.00037106,-0.00000054,-0.06228001,-0.3336
 2648,-0.00002473,0.00147730,-0.00310837,-0.00000048,-0.00253045,-0.000
 39358,0.00000033,0.00153445,0.00038582,-0.00000005,-0.00001859,-0.0000
 3169,0.00000006,0.00006335,-0.00020155,0.00000007,0.06557129,0.3481120
 0,-0.00000004,-0.00000003,0.00402735,-0.00000018,0.00000001,-0.0009700
 1,-0.00000054,0.00000043,0.00083825,0.00000010,0.,0.00576864,-0.000007
 17,-0.00002753,-0.03016144,0.00000203,0.00000055,0.00670701,0.00000021
 ,0.00000025,-0.00390081,-0.00000008,-0.00000012,0.00071730,-0.00000002
 ,-0.00000001,-0.00052450,0.00000002,-0.00000011,-0.00125112,0.00000621
 ,0.00002620,0.01992021,-0.23241820,0.14746668,0.00001511,-0.01366731,0
 .01942993,0.00000143,0.00751313,-0.00897526,-0.00000046,-0.00370716,-0
 .00326156,0.00000054,0.00033682,-0.00228558,0.,-0.00081028,-0.00057541
 ,-0.00000007,0.00191430,0.00021865,-0.00000018,0.00000994,-0.00004719,
 0.00000003,0.00095606,0.00006916,-0.00000034,-0.00071644,0.00100527,-0
 .00000002,0.00046258,-0.00033115,0.00000011,0.23970836,0.14482546,-0.1
 7697762,-0.00001261,-0.00953731,0.01168377,0.00000055,0.02122697,-0.01
 549857,-0.00000137,-0.00295155,-0.00047312,-0.00000012,-0.00371448,-0.
 00334564,-0.00000037,0.00041598,-0.00004231,0.00000006,0.00357237,0.00
 138783,0.00000028,-0.00128928,-0.00062653,-0.00000007,0.00016872,0.000
 61623,0.00000012,-0.00054997,0.00048769,0.00000004,0.00098658,-0.00049
 110,0.00000001,-0.15272581,0.18286782,0.00001652,-0.00001408,-0.029625
 98,-0.00000027,0.00000041,0.00425123,-0.00000011,0.00000085,0.00149348
 ,0.,-0.00000006,0.00602154,0.00000065,-0.00000028,0.00367283,-0.000000
 48,0.00000003,-0.00116156,0.00000020,0.00000027,-0.00453169,-0.0000000
 5,-0.00000010,0.00099236,-0.00000027,-0.00000027,-0.00385302,-0.000000
 05,0.,-0.00022938,-0.00000010,-0.00000013,0.00191080,-0.00001616,0.000
 01352,0.02136900,-0.00646945,0.00452164,0.00000005,0.00262690,-0.00776
 234,0.00000031,0.00356819,-0.00665613,0.00000002,0.00567453,0.01480814
 ,-0.00000182,-0.05860963,0.02853215,-0.00000133,-0.27701410,0.12152969
 ,-0.00000413,-0.00097896,0.00183743,-0.00000012,0.00001554,-0.00033344
 ,0.00000003,0.00075806,-0.00046023,-0.00000012,0.00131377,-0.00088814,
 -0.00000092,0.00206663,0.00110859,-0.00000046,0.00045267,-0.00042592,0
 .00000009,0.82536527,0.00934657,0.00367332,0.00000014,-0.01505876,-0.0
 0022099,0.00000125,-0.00064446,-0.00482554,-0.00000050,0.04424297,-0.0
 5050946,0.00000292,-0.00101581,0.01732786,-0.00000062,0.12053499,-0.22
 888458,0.00001499,-0.00762788,-0.00320668,-0.00000079,0.00382217,0.001
 20141,0.00000032,0.00100692,-0.00066827,-0.00000015,0.00084262,0.00187
 529,-0.00000017,-0.00034163,0.00065145,0.00000084,0.00006378,0.0004660
 6,-0.00000018,0.02992449,0.83907399,-0.00000189,0.00000065,-0.00136192
 ,0.00000199,-0.00000102,0.00373587,0.00000180,-0.00000079,0.00341605,-
 0.00000171,0.00000534,0.00834726,-0.00000401,-0.00000201,0.00915179,0.
 00001632,-0.00000046,-0.03595890,0.00000074,0.00000010,0.00113140,-0.0
 0000023,0.00000003,-0.00040851,-0.00000001,-0.00000003,-0.00013504,-0.
 00000042,-0.00000008,-0.00209353,0.00000008,0.00000036,-0.00257423,0.0
 0000006,-0.00000012,-0.00024364,-0.00011937,-0.00001735,0.01597563,0.0
 0092344,-0.00017464,0.00000012,-0.00096852,0.00030313,-0.00000069,-0.0
 0029111,-0.00034430,-0.00000014,0.00224404,-0.00288043,-0.00000062,0.0
 0099140,0.00337644,0.00000118,-0.02132390,-0.00703513,0.00000491,-0.00
 106079,-0.00026695,0.,0.00043603,0.00014044,0.,0.00005819,-0.00003536,
 0.00000006,0.00022562,0.00087151,0.00000042,0.00011618,-0.00010514,0.0
 0000010,0.00000620,0.00007915,0.00000006,-0.41589903,-0.12766319,0.000
 09964,0.43069924,0.00057532,0.00005150,-0.00000004,-0.00103522,0.00007
 172,-0.00000029,-0.00008847,0.00073415,0.00000025,0.00246556,0.0010541
 5,0.00000010,0.00399761,-0.00315439,0.00000062,0.02218046,0.01322874,-
 0.00000733,0.00090124,-0.00025074,0.00000020,-0.00026650,0.00005323,-0
 .00000008,0.00002115,-0.00001049,0.00000003,-0.00066121,-0.00104992,0.
 00000029,0.00023811,0.00002025,-0.00000003,-0.00010584,-0.00000602,0.0
 0000005,-0.12744870,-0.12103146,0.00003497,0.13033862,0.11251845,0.000
 00064,-0.00000049,-0.00024678,-0.00000039,0.00000037,-0.00076321,-0.00
 000117,0.00000024,0.00185858,0.00000018,-0.00000151,-0.00117005,0.0000
 0048,0.00000144,0.00317689,-0.00001157,0.00000158,-0.00573811,-0.00000
 033,0.00000016,0.00086331,-0.00000003,-0.00000014,-0.00033258,0.,0.000
 00002,0.00013557,0.00000017,-0.00000012,0.00030082,0.00000012,0.000000
 17,-0.00090793,-0.00000004,0.00000006,0.00003822,0.00012233,0.00003884
 ,0.00076453,-0.00010500,-0.00003819,0.00464731,-0.00038600,-0.00044382
 ,-0.00000002,0.00163620,0.00104863,0.00000008,-0.00045674,-0.00004103,
 0.00000008,-0.00480092,0.00244753,-0.00000010,0.00150136,0.00113888,-0
 .00000016,0.00918981,0.02815703,0.00000180,0.00045807,0.00034257,-0.00
 000003,-0.00036127,-0.00010819,0.00000001,-0.00029248,0.00017859,0.000
 00004,0.00013366,0.00027258,-0.00000009,-0.00098990,-0.00061041,-0.000
 00029,-0.00004068,-0.00008093,-0.00000005,-0.08287040,-0.05743278,0.00
 000701,0.00384300,-0.03111214,-0.00000539,0.07343627,-0.00076390,0.000
 49891,-0.00000007,0.00002666,-0.00083426,0.00000037,0.00011226,-0.0005
 6359,0.00000039,0.00236049,0.00214183,-0.00000074,-0.00274559,0.001462
 43,0.00000044,-0.00127755,-0.01601487,-0.00000230,0.00050058,0.0004310
 7,0.00000011,-0.00031184,-0.00014890,-0.00000004,0.00019159,-0.0000721
 0,-0.00000002,-0.00008014,0.00019233,-0.00000013,0.00058101,0.00021492
 ,-0.00000044,0.00005432,-0.00004848,-0.00000005,-0.05828723,-0.4549224
 0,-0.00001959,0.00339584,-0.00222917,-0.00000243,0.05624349,0.46989228
 ,0.00000071,0.00000025,0.00020152,-0.00000069,0.00000062,0.00195907,0.
 00000019,-0.00000010,-0.00060744,-0.00000030,-0.00000096,0.00397733,0.
 00000115,0.00000015,-0.00081721,-0.00000313,0.00000596,-0.00606313,-0.
 00000025,-0.00000028,-0.00029697,0.00000020,0.00000011,0.00015344,-0.0
 0000009,0.00000004,-0.00036064,-0.00000013,-0.00000008,-0.00062045,-0.
 00000013,-0.00000017,0.00040049,-0.00000002,0.00000003,-0.00010418,0.0
 0000542,-0.00003953,0.00025326,-0.00000003,0.00000943,-0.00262658,-0.0
 0000291,0.00002451,0.00455150\\0.00006120,0.00005326,-0.00000361,-0.00
 000038,-0.00000688,0.00000688,-0.00001450,-0.00001763,-0.00000070,0.00
 001102,-0.00000920,-0.00000310,-0.00000344,0.00000941,0.00000121,-0.00
 009489,-0.00002749,0.00000466,0.00001958,0.00000417,-0.00000103,-0.000
 00799,-0.00002200,0.00000040,-0.00001214,0.00000732,-0.00000224,-0.000
 00458,0.00000020,-0.00000166,0.00001247,-0.00000562,-0.00000246,-0.000
 00644,-0.00000353,0.00000165,0.00002466,0.00000168,0.00000092,0.000010
 13,0.00000450,-0.00000155,0.00000531,0.00001182,0.00000063\\\@


 NO SCIENCE HAS EVER MADE MORE RAPID PROGRESS IN A
 SHORTER TIME THAN CHEMISTRY.
   -- MARTIN HEINRICH KLOPROTH, 1791
 (FIRST PROFESSOR OF CHEMISTRY AT THE UNIVERSITY OF BERLIN)
 Job cpu time:       0 days  2 hours  3 minutes 23.9 seconds.
 Elapsed time:       0 days  0 hours 17 minutes 42.5 seconds.
 File lengths (MBytes):  RWF=    193 Int=      0 D2E=      0 Chk=      8 Scr=      1
 Normal termination of Gaussian 16 at Sun Aug  9 02:21:15 2020.
