 Entering Gaussian System, Link 0=/home/ubuntu/g16/g16
 Input=4-CHOPhN2+_UB3LYP-aug-cc-pVDZ-Opt.gjf
 Output=4-CHOPhN2+_UB3LYP-aug-cc-pVDZ-Opt.log
 Initial command:
 /home/ubuntu/g16/l1.exe "/home/ubuntu/g16/Gau-32440.inp" -scrdir="/home/ubuntu/g16/"
 Entering Link 1 = /home/ubuntu/g16/l1.exe PID=     32442.
  
 Copyright (c) 1988,1990,1992,1993,1995,1998,2003,2009,2016,
            Gaussian, Inc.  All Rights Reserved.
  
 This is part of the Gaussian(R) 16 program.  It is based on
 the Gaussian(R) 09 system (copyright 2009, Gaussian, Inc.),
 the Gaussian(R) 03 system (copyright 2003, Gaussian, Inc.),
 the Gaussian(R) 98 system (copyright 1998, Gaussian, Inc.),
 the Gaussian(R) 94 system (copyright 1995, Gaussian, Inc.),
 the Gaussian 92(TM) system (copyright 1992, Gaussian, Inc.),
 the Gaussian 90(TM) system (copyright 1990, Gaussian, Inc.),
 the Gaussian 88(TM) system (copyright 1988, Gaussian, Inc.),
 the Gaussian 86(TM) system (copyright 1986, Carnegie Mellon
 University), and the Gaussian 82(TM) system (copyright 1983,
 Carnegie Mellon University). Gaussian is a federally registered
 trademark of Gaussian, Inc.
  
 This software contains proprietary and confidential information,
 including trade secrets, belonging to Gaussian, Inc.
  
 This software is provided under written license and may be
 used, copied, transmitted, or stored only in accord with that
 written license.
  
 The following legend is applicable only to US Government
 contracts under FAR:
  
                    RESTRICTED RIGHTS LEGEND
  
 Use, reproduction and disclosure by the US Government is
 subject to restrictions as set forth in subparagraphs (a)
 and (c) of the Commercial Computer Software - Restricted
 Rights clause in FAR 52.227-19.
  
 Gaussian, Inc.
 340 Quinnipiac St., Bldg. 40, Wallingford CT 06492
  
  
 ---------------------------------------------------------------
 Warning -- This program may not be used in any manner that
 competes with the business of Gaussian, Inc. or will provide
 assistance to any competitor of Gaussian, Inc.  The licensee
 of this program is prohibited from giving any competitor of
 Gaussian, Inc. access to this program.  By using this program,
 the user acknowledges that Gaussian, Inc. is engaged in the
 business of creating and licensing software in the field of
 computational chemistry and represents and warrants to the
 licensee that it is not a competitor of Gaussian, Inc. and that
 it will not use this program in any manner prohibited above.
 ---------------------------------------------------------------
  

 Cite this work as:
 Gaussian 16, Revision A.03,
 M. J. Frisch, G. W. Trucks, H. B. Schlegel, G. E. Scuseria, 
 M. A. Robb, J. R. Cheeseman, G. Scalmani, V. Barone, 
 G. A. Petersson, H. Nakatsuji, X. Li, M. Caricato, A. V. Marenich, 
 J. Bloino, B. G. Janesko, R. Gomperts, B. Mennucci, H. P. Hratchian, 
 J. V. Ortiz, A. F. Izmaylov, J. L. Sonnenberg, D. Williams-Young, 
 F. Ding, F. Lipparini, F. Egidi, J. Goings, B. Peng, A. Petrone, 
 T. Henderson, D. Ranasinghe, V. G. Zakrzewski, J. Gao, N. Rega, 
 G. Zheng, W. Liang, M. Hada, M. Ehara, K. Toyota, R. Fukuda, 
 J. Hasegawa, M. Ishida, T. Nakajima, Y. Honda, O. Kitao, H. Nakai, 
 T. Vreven, K. Throssell, J. A. Montgomery, Jr., J. E. Peralta, 
 F. Ogliaro, M. J. Bearpark, J. J. Heyd, E. N. Brothers, K. N. Kudin, 
 V. N. Staroverov, T. A. Keith, R. Kobayashi, J. Normand, 
 K. Raghavachari, A. P. Rendell, J. C. Burant, S. S. Iyengar, 
 J. Tomasi, M. Cossi, J. M. Millam, M. Klene, C. Adamo, R. Cammi, 
 J. W. Ochterski, R. L. Martin, K. Morokuma, O. Farkas, 
 J. B. Foresman, and D. J. Fox, Gaussian, Inc., Wallingford CT, 2016.
 
 ******************************************
 Gaussian 16:  ES64L-G16RevA.03 25-Dec-2016
                 8-Aug-2020 
 ******************************************
 %chk=4-CHOPhN2+_UB3LYP-aug-cc-pVDZ-Opt.chk
 %mem=500MW
 %nproc=7
 Will use up to    7 processors via shared memory.
 ----------------------------------------------------------------------
 #p opt=(maxcycles=777) freq ub3lyp/aug-cc-pVDZ pop=(Bonding,AllOrbital
 s,mk,no,nboread)
 ----------------------------------------------------------------------
 1/6=777,18=20,19=15,26=3,38=1/1,3;
 2/9=110,12=2,17=6,18=5,40=1/2;
 3/5=16,7=10,11=2,25=1,30=1,71=1,74=-5,116=2/1,2,3;
 4//1;
 5/5=2,38=5/2;
 6/7=2,8=2,9=2,10=2,15=8,20=1,22=-1,27=20,28=1,31=1,40=2,96=-1/1,2,7;
 7//1,2,3,16;
 1/6=777,18=20,19=15,26=3/3(2);
 2/9=110/2;
 99//99;
 2/9=110/2;
 3/5=16,7=10,11=2,25=1,30=1,71=1,74=-5,116=2/1,2,3;
 4/5=5,16=3,69=1/1;
 5/5=2,38=5/2;
 7//1,2,3,16;
 1/6=777,18=20,19=15,26=3/3(-5);
 2/9=110/2;
 6/7=2,8=2,9=2,10=2,15=8,19=2,20=1,22=-1,27=20,28=1,31=1,40=2,96=-1/1,2,7;
 99/9=1/99;
 Leave Link    1 at Sat Aug  8 23:47:48 2020, MaxMem=   524288000 cpu:               0.3 elap:               0.0
 (Enter /home/ubuntu/g16/l101.exe)
 -----------------------------
 4-CHOPhN2+_UB3LYP-aug-cc-pVDZ
 -----------------------------
 Symbolic Z-matrix:
 Charge =  1 Multiplicity = 1
 C                    -0.85507   1.28694   0. 
 C                     0.531     1.38479   0. 
 C                    -1.39904  -0.01321  -0.00001 
 C                     1.32659   0.22611   0. 
 C                    -0.6329   -1.20011  -0.00001 
 C                     0.74544  -1.05695  -0.00001 
 N                    -2.77854  -0.13524  -0.00001 
 N                    -3.88734  -0.23788  -0.00001 
 H                     0.99861   2.36975   0.00001 
 H                    -1.11304  -2.17747  -0.00001 
 H                     1.39725  -1.93028  -0.00001 
 H                    -1.49764   2.16591   0. 
 C                     2.83126   0.34503   0. 
 O                     3.54421  -0.62879   0.00003 
 H                     3.23856   1.37862   0.00004 
 
 ITRead=  0  0  0  0  0  0  0  0  0  0  0  0  0  0  0
 MicOpt= -1 -1 -1 -1 -1 -1 -1 -1 -1 -1 -1 -1 -1 -1 -1
 NAtoms=     15 NQM=       15 NQMF=       0 NMMI=      0 NMMIF=      0
                NMic=       0 NMicF=      0.
                    Isotopes and Nuclear Properties:
 (Nuclear quadrupole moments (NQMom) in fm**2, nuclear magnetic moments (NMagM)
  in nuclear magnetons)

  Atom         1           2           3           4           5           6           7           8           9          10
 IAtWgt=          12          12          12          12          12          12          14          14           1           1
 AtmWgt=  12.0000000  12.0000000  12.0000000  12.0000000  12.0000000  12.0000000  14.0030740  14.0030740   1.0078250   1.0078250
 NucSpn=           0           0           0           0           0           0           2           2           1           1
 AtZEff=  -0.0000000  -0.0000000  -0.0000000  -0.0000000  -0.0000000  -0.0000000  -0.0000000  -0.0000000  -0.0000000  -0.0000000
 NQMom=    0.0000000   0.0000000   0.0000000   0.0000000   0.0000000   0.0000000   2.0440000   2.0440000   0.0000000   0.0000000
 NMagM=    0.0000000   0.0000000   0.0000000   0.0000000   0.0000000   0.0000000   0.4037610   0.4037610   2.7928460   2.7928460
 AtZNuc=   6.0000000   6.0000000   6.0000000   6.0000000   6.0000000   6.0000000   7.0000000   7.0000000   1.0000000   1.0000000

  Atom        11          12          13          14          15
 IAtWgt=           1           1          12          16           1
 AtmWgt=   1.0078250   1.0078250  12.0000000  15.9949146   1.0078250
 NucSpn=           1           1           0           0           1
 AtZEff=  -0.0000000  -0.0000000  -0.0000000  -0.0000000  -0.0000000
 NQMom=    0.0000000   0.0000000   0.0000000   0.0000000   0.0000000
 NMagM=    2.7928460   2.7928460   0.0000000   0.0000000   2.7928460
 AtZNuc=   1.0000000   1.0000000   6.0000000   8.0000000   1.0000000
 Leave Link  101 at Sat Aug  8 23:47:48 2020, MaxMem=   524288000 cpu:               1.4 elap:               0.2
 (Enter /home/ubuntu/g16/l103.exe)

 GradGradGradGradGradGradGradGradGradGradGradGradGradGradGradGradGradGrad
 Berny optimization.
 Initialization pass.
                           ----------------------------
                           !    Initial Parameters    !
                           ! (Angstroms and Degrees)  !
 --------------------------                            --------------------------
 ! Name  Definition              Value          Derivative Info.                !
 --------------------------------------------------------------------------------
 ! R1    R(1,2)                  1.3895         estimate D2E/DX2                !
 ! R2    R(1,3)                  1.4094         estimate D2E/DX2                !
 ! R3    R(1,12)                 1.0888         estimate D2E/DX2                !
 ! R4    R(2,4)                  1.4055         estimate D2E/DX2                !
 ! R5    R(2,9)                  1.0903         estimate D2E/DX2                !
 ! R6    R(3,5)                  1.4127         estimate D2E/DX2                !
 ! R7    R(3,7)                  1.3849         estimate D2E/DX2                !
 ! R8    R(4,6)                  1.4085         estimate D2E/DX2                !
 ! R9    R(4,13)                 1.5094         estimate D2E/DX2                !
 ! R10   R(5,6)                  1.3858         estimate D2E/DX2                !
 ! R11   R(5,10)                 1.0889         estimate D2E/DX2                !
 ! R12   R(6,11)                 1.0898         estimate D2E/DX2                !
 ! R13   R(7,8)                  1.1135         estimate D2E/DX2                !
 ! R14   R(13,14)                1.2069         estimate D2E/DX2                !
 ! R15   R(13,15)                1.1109         estimate D2E/DX2                !
 ! A1    A(2,1,3)              116.7421         estimate D2E/DX2                !
 ! A2    A(2,1,12)             122.1305         estimate D2E/DX2                !
 ! A3    A(3,1,12)             121.1274         estimate D2E/DX2                !
 ! A4    A(1,2,4)              120.4367         estimate D2E/DX2                !
 ! A5    A(1,2,9)              119.4342         estimate D2E/DX2                !
 ! A6    A(4,2,9)              120.1291         estimate D2E/DX2                !
 ! A7    A(1,3,5)              124.4539         estimate D2E/DX2                !
 ! A8    A(1,3,7)              117.7592         estimate D2E/DX2                !
 ! A9    A(5,3,7)              117.7869         estimate D2E/DX2                !
 ! A10   A(2,4,6)              121.1574         estimate D2E/DX2                !
 ! A11   A(2,4,13)             119.9559         estimate D2E/DX2                !
 ! A12   A(6,4,13)             118.8866         estimate D2E/DX2                !
 ! A13   A(3,5,6)              116.9124         estimate D2E/DX2                !
 ! A14   A(3,5,10)             120.9948         estimate D2E/DX2                !
 ! A15   A(6,5,10)             122.0929         estimate D2E/DX2                !
 ! A16   A(4,6,5)              120.2974         estimate D2E/DX2                !
 ! A17   A(4,6,11)             118.8965         estimate D2E/DX2                !
 ! A18   A(5,6,11)             120.8061         estimate D2E/DX2                !
 ! A19   A(4,13,14)            121.6896         estimate D2E/DX2                !
 ! A20   A(4,13,15)            116.0265         estimate D2E/DX2                !
 ! A21   A(14,13,15)           122.2839         estimate D2E/DX2                !
 ! A22   L(3,7,8,10,-1)        179.7665         estimate D2E/DX2                !
 ! A23   L(3,7,8,10,-2)        180.0            estimate D2E/DX2                !
 ! D1    D(3,1,2,4)             -0.0005         estimate D2E/DX2                !
 ! D2    D(3,1,2,9)           -179.9999         estimate D2E/DX2                !
 ! D3    D(12,1,2,4)           180.0            estimate D2E/DX2                !
 ! D4    D(12,1,2,9)             0.0006         estimate D2E/DX2                !
 ! D5    D(2,1,3,5)              0.0005         estimate D2E/DX2                !
 ! D6    D(2,1,3,7)            180.0            estimate D2E/DX2                !
 ! D7    D(12,1,3,5)          -180.0            estimate D2E/DX2                !
 ! D8    D(12,1,3,7)            -0.0005         estimate D2E/DX2                !
 ! D9    D(1,2,4,6)              0.0005         estimate D2E/DX2                !
 ! D10   D(1,2,4,13)           180.0            estimate D2E/DX2                !
 ! D11   D(9,2,4,6)            179.9999         estimate D2E/DX2                !
 ! D12   D(9,2,4,13)            -0.0006         estimate D2E/DX2                !
 ! D13   D(1,3,5,6)             -0.0005         estimate D2E/DX2                !
 ! D14   D(1,3,5,10)           179.9995         estimate D2E/DX2                !
 ! D15   D(7,3,5,6)            180.0            estimate D2E/DX2                !
 ! D16   D(7,3,5,10)             0.0            estimate D2E/DX2                !
 ! D17   D(2,4,6,5)             -0.0005         estimate D2E/DX2                !
 ! D18   D(2,4,6,11)           180.0            estimate D2E/DX2                !
 ! D19   D(13,4,6,5)           180.0            estimate D2E/DX2                !
 ! D20   D(13,4,6,11)            0.0004         estimate D2E/DX2                !
 ! D21   D(2,4,13,14)          179.9983         estimate D2E/DX2                !
 ! D22   D(2,4,13,15)            0.0023         estimate D2E/DX2                !
 ! D23   D(6,4,13,14)           -0.0021         estimate D2E/DX2                !
 ! D24   D(6,4,13,15)         -179.9982         estimate D2E/DX2                !
 ! D25   D(3,5,6,4)              0.0005         estimate D2E/DX2                !
 ! D26   D(3,5,6,11)           180.0            estimate D2E/DX2                !
 ! D27   D(10,5,6,4)          -179.9995         estimate D2E/DX2                !
 ! D28   D(10,5,6,11)            0.0            estimate D2E/DX2                !
 --------------------------------------------------------------------------------
 Trust Radius=3.00D-01 FncErr=1.00D-07 GrdErr=1.00D-06 EigMax=2.50D+02 EigMin=1.00D-04
 Number of steps in this run=    100 maximum allowed number of steps=    100.
 GradGradGradGradGradGradGradGradGradGradGradGradGradGradGradGradGradGrad

 Leave Link  103 at Sat Aug  8 23:47:48 2020, MaxMem=   524288000 cpu:               0.0 elap:               0.0
 (Enter /home/ubuntu/g16/l202.exe)
                          Input orientation:                          
 ---------------------------------------------------------------------
 Center     Atomic      Atomic             Coordinates (Angstroms)
 Number     Number       Type             X           Y           Z
 ---------------------------------------------------------------------
      1          6           0       -0.855070    1.286940    0.000000
      2          6           0        0.531000    1.384790    0.000000
      3          6           0       -1.399040   -0.013210   -0.000010
      4          6           0        1.326590    0.226110    0.000000
      5          6           0       -0.632900   -1.200110   -0.000010
      6          6           0        0.745440   -1.056950   -0.000010
      7          7           0       -2.778540   -0.135240   -0.000010
      8          7           0       -3.887340   -0.237880   -0.000010
      9          1           0        0.998610    2.369750    0.000010
     10          1           0       -1.113040   -2.177470   -0.000010
     11          1           0        1.397250   -1.930280   -0.000010
     12          1           0       -1.497640    2.165910    0.000000
     13          6           0        2.831260    0.345030    0.000000
     14          8           0        3.544210   -0.628790    0.000030
     15          1           0        3.238560    1.378620    0.000040
 ---------------------------------------------------------------------
                    Distance matrix (angstroms):
                    1          2          3          4          5
     1  C    0.000000
     2  C    1.389520   0.000000
     3  C    1.409359   2.383161   0.000000
     4  C    2.425902   1.405526   2.736116   0.000000
     5  C    2.496954   2.834849   1.412693   2.423573   0.000000
     6  C    2.838213   2.451138   2.384992   1.408538   1.385755
     7  N    2.392140   3.641915   1.384887   4.121003   2.395354
     8  N    3.394074   4.706887   2.498422   5.234535   3.393710
     9  H    2.146767   1.090323   3.380418   2.168586   3.925013
    10  H    3.474001   3.923336   2.183075   3.424762   1.088929
    11  H    3.927270   3.426380   3.390339   2.157547   2.157465
    12  H    1.088800   2.173828   2.181350   3.426237   3.475322
    13  C    3.804763   2.524341   4.245442   1.509362   3.793134
    14  O    4.798300   3.624078   4.981431   2.376698   4.216000
    15  H    4.094656   2.707567   4.841955   2.232467   4.651672
                    6          7          8          9         10
     6  C    0.000000
     7  N    3.642524   0.000000
     8  N    4.704628   1.113540   0.000000
     9  H    3.436040   4.532310   5.538253   0.000000
    10  H    2.170141   2.635260   3.385078   5.013609   0.000000
    11  H    1.089753   4.545260   5.548974   4.318469   2.522431
    12  H    3.926606   2.633628   3.389524   2.504559   4.360375
    13  C    2.513204   5.630321   6.743839   2.730952   4.681934
    14  O    2.831331   6.341984   7.441824   3.933360   4.907992
    15  H    3.485348   6.204616   7.306950   2.449432   5.619804
                   11         12         13         14         15
    11  H    0.000000
    12  H    5.015891   0.000000
    13  C    2.689502   4.696273   0.000000
    14  O    2.510640   5.764599   1.206906   0.000000
    15  H    3.786719   4.801189   1.110946   2.030546   0.000000
 Stoichiometry    C7H5N2O(1+)
 Framework group  C1[X(C7H5N2O)]
 Deg. of freedom    39
 Full point group                 C1      NOp   1
 Largest Abelian subgroup         C1      NOp   1
 Largest concise Abelian subgroup C1      NOp   1
                         Standard orientation:                         
 ---------------------------------------------------------------------
 Center     Atomic      Atomic             Coordinates (Angstroms)
 Number     Number       Type             X           Y           Z
 ---------------------------------------------------------------------
      1          6           0       -0.855069    1.286941    0.000001
      2          6           0        0.531001    1.384790    0.000001
      3          6           0       -1.399039   -0.013209   -0.000009
      4          6           0        1.326591    0.226110    0.000001
      5          6           0       -0.632899   -1.200109   -0.000009
      6          6           0        0.745441   -1.056950   -0.000009
      7          7           0       -2.778539   -0.135239   -0.000009
      8          7           0       -3.887339   -0.237879   -0.000009
      9          1           0        0.998611    2.369750    0.000011
     10          1           0       -1.113040   -2.177469   -0.000009
     11          1           0        1.397250   -1.930280   -0.000009
     12          1           0       -1.497639    2.165911    0.000001
     13          6           0        2.831261    0.345030    0.000001
     14          8           0        3.544211   -0.628790    0.000031
     15          1           0        3.238561    1.378620    0.000041
 ---------------------------------------------------------------------
 Rotational constants (GHZ):           4.8694322           0.7198473           0.6271376
 Leave Link  202 at Sat Aug  8 23:47:48 2020, MaxMem=   524288000 cpu:               0.0 elap:               0.0
 (Enter /home/ubuntu/g16/l301.exe)
 Standard basis: Aug-CC-pVDZ (5D, 7F)
 Ernie: Thresh=  0.10000D-02 Tol=  0.10000D-05 Strict=F.
 Ernie:  20 primitive shells out of 285 were deleted.
 There are   295 symmetry adapted cartesian basis functions of A   symmetry.
 There are   275 symmetry adapted basis functions of A   symmetry.
   275 basis functions,   485 primitive gaussians,   295 cartesian basis functions
    34 alpha electrons       34 beta electrons
       nuclear repulsion energy       445.6573165988 Hartrees.
 IExCor=  402 DFT=T Ex+Corr=B3LYP ExCW=0 ScaHFX=  0.200000
 ScaDFX=  0.800000  0.720000  1.000000  0.810000 ScalE2=  1.000000  1.000000
 IRadAn=      5 IRanWt=     -1 IRanGd=            0 ICorTp=0 IEmpDi=  4
 NAtoms=   15 NActive=   15 NUniq=   15 SFac= 1.00D+00 NAtFMM=   60 NAOKFM=F Big=F
 Integral buffers will be    131072 words long.
 Raffenetti 2 integral format.
 Two-electron integral symmetry is turned on.
 Leave Link  301 at Sat Aug  8 23:47:48 2020, MaxMem=   524288000 cpu:               0.2 elap:               0.0
 (Enter /home/ubuntu/g16/l302.exe)
 NPDir=0 NMtPBC=     1 NCelOv=     1 NCel=       1 NClECP=     1 NCelD=      1
         NCelK=      1 NCelE2=     1 NClLst=     1 CellRange=     0.0.
 One-electron integrals computed using PRISM.
 One-electron integral symmetry used in STVInt
 NBasis=   275 RedAO= T EigKep=  2.01D-06  NBF=   275
 NBsUse=   275 1.00D-06 EigRej= -1.00D+00 NBFU=   275
 Precomputing XC quadrature grid using
 IXCGrd= 4 IRadAn=           5 IRanWt=          -1 IRanGd=           0 AccXCQ= 0.00D+00.
 Generated NRdTot=       0 NPtTot=           0 NUsed=           0 NTot=          32
 NSgBfM=   294   294   294   294   294 MxSgAt=    15 MxSgA2=    15.
 Leave Link  302 at Sat Aug  8 23:47:49 2020, MaxMem=   524288000 cpu:               2.6 elap:               0.4
 (Enter /home/ubuntu/g16/l303.exe)
 DipDrv:  MaxL=1.
 Leave Link  303 at Sat Aug  8 23:47:49 2020, MaxMem=   524288000 cpu:               0.3 elap:               0.0
 (Enter /home/ubuntu/g16/l401.exe)
 ExpMin= 2.97D-02 ExpMax= 1.17D+04 ExpMxC= 4.01D+02 IAcc=3 IRadAn=         5 AccDes= 0.00D+00
 Harris functional with IExCor=  402 and IRadAn=       5 diagonalized for initial guess.
 HarFok:  IExCor=  402 AccDes= 0.00D+00 IRadAn=         5 IDoV= 1 UseB2=F ITyADJ=14
 ICtDFT=  3500011 ScaDFX=  1.000000  1.000000  1.000000  1.000000
 FoFCou: FMM=F IPFlag=           0 FMFlag=      100000 FMFlg1=           0
         NFxFlg=           0 DoJE=T BraDBF=F KetDBF=T FulRan=T
         wScrn=  0.000000 ICntrl=       500 IOpCl=  0 I1Cent=   200000004 NGrid=           0
         NMat0=    1 NMatS0=      1 NMatT0=    0 NMatD0=    1 NMtDS0=    0 NMtDT0=    0
 Petite list used in FoFCou.
 Harris En= -454.248437493977    
 JPrj=0 DoOrth=F DoCkMO=F.
 Initial guess <Sx>= 0.0000 <Sy>= 0.0000 <Sz>= 0.0000 <S**2>=-0.0000 S=-0.0000
 Leave Link  401 at Sat Aug  8 23:47:51 2020, MaxMem=   524288000 cpu:              17.9 elap:               2.6
 (Enter /home/ubuntu/g16/l502.exe)
 Integral symmetry usage will be decided dynamically.
 UHF open shell SCF:
 Using DIIS extrapolation, IDIIS=  1040.
 NGot=   524288000 LenX=   524109118 LenY=   524021652
 Requested convergence on RMS density matrix=1.00D-08 within 128 cycles.
 Requested convergence on MAX density matrix=1.00D-06.
 Requested convergence on             energy=1.00D-06.
 No special actions if energy rises.
 Fock matrices will be formed incrementally for  20 cycles.

 Cycle   1  Pass 1  IDiag  1:
 FoFJK:  IHMeth= 1 ICntrl=       0 DoSepK=F KAlg= 0 I1Cent=           0 FoldK=F
 IRaf= 980000000 NMat=       1 IRICut=       1 DoRegI=T DoRafI=F ISym2E= 0 IDoP0=0 IntGTp=1.
 FoFCou: FMM=F IPFlag=           0 FMFlag=      100000 FMFlg1=           0
         NFxFlg=           0 DoJE=F BraDBF=F KetDBF=F FulRan=T
         wScrn=  0.000000 ICntrl=         0 IOpCl=  1 I1Cent=           0 NGrid=           0
         NMat0=    1 NMatS0=      1 NMatT0=    0 NMatD0=    1 NMtDS0=    0 NMtDT0=    0
 Symmetry not used in FoFCou.
 E= -453.988298038496    
 DIIS: error= 2.09D-02 at cycle   1 NSaved=   1.
 NSaved= 1 IEnMin= 1 EnMin= -453.988298038496     IErMin= 1 ErrMin= 2.09D-02
 ErrMax= 2.09D-02  0.00D+00 EMaxC= 1.00D-01 BMatC= 7.88D-01 BMatP= 7.88D-01
 IDIUse=3 WtCom= 7.91D-01 WtEn= 2.09D-01
 Coeff-Com:  0.100D+01
 Coeff-En:   0.100D+01
 Coeff:      0.100D+01
 Gap=     0.199 Goal=   None    Shift=    0.000
 Gap=     0.199 Goal=   None    Shift=    0.000
 GapD=    0.199 DampG=1.000 DampE=0.500 DampFc=0.5000 IDamp=-1.
 Damping current iteration by 5.00D-01
 RMSDP=6.24D-02 MaxDP=2.44D+00              OVMax= 9.14D-01

 Cycle   2  Pass 1  IDiag  1:
 RMSU=  1.25D-02    CP:  8.18D-01
 E= -452.767368136416     Delta-E=        1.220929902080 Rises=F Damp=T
 DIIS: error= 3.95D-02 at cycle   2 NSaved=   2.
 NSaved= 2 IEnMin= 1 EnMin= -453.988298038496     IErMin= 1 ErrMin= 2.09D-02
 ErrMax= 3.95D-02  0.00D+00 EMaxC= 1.00D-01 BMatC= 2.04D+00 BMatP= 7.88D-01
 IDIUse=2 WtCom= 0.00D+00 WtEn= 1.00D+00
 Coeff-En:   0.851D+00 0.149D+00
 Coeff:      0.851D+00 0.149D+00
 Gap=     0.023 Goal=   None    Shift=    0.000
 Gap=     0.023 Goal=   None    Shift=    0.000
 RMSDP=3.17D-02 MaxDP=1.32D+00 DE= 1.22D+00 OVMax= 9.93D-01

 Cycle   3  Pass 1  IDiag  1:
 RMSU=  8.16D-03    CP:  6.28D-01  1.59D+00
 E= -454.026729556532     Delta-E=       -1.259361420116 Rises=F Damp=F
 DIIS: error= 2.20D-02 at cycle   3 NSaved=   3.
 NSaved= 3 IEnMin= 3 EnMin= -454.026729556532     IErMin= 1 ErrMin= 2.09D-02
 ErrMax= 2.20D-02  0.00D+00 EMaxC= 1.00D-01 BMatC= 7.87D-01 BMatP= 7.88D-01
 IDIUse=3 WtCom= 7.80D-01 WtEn= 2.20D-01
 Coeff-Com:  0.499D+00 0.570D-01 0.444D+00
 Coeff-En:   0.458D+00 0.000D+00 0.542D+00
 Coeff:      0.490D+00 0.445D-01 0.465D+00
 Gap=     0.119 Goal=   None    Shift=    0.000
 Gap=     0.119 Goal=   None    Shift=    0.000
 RMSDP=8.91D-03 MaxDP=2.39D-01 DE=-1.26D+00 OVMax= 1.08D-01

 Cycle   4  Pass 1  IDiag  1:
 RMSU=  5.70D-03    CP:  6.41D-01  1.07D+00  8.74D-01
 E= -454.193896096315     Delta-E=       -0.167166539783 Rises=F Damp=F
 DIIS: error= 1.03D-02 at cycle   4 NSaved=   4.
 NSaved= 4 IEnMin= 4 EnMin= -454.193896096315     IErMin= 4 ErrMin= 1.03D-02
 ErrMax= 1.03D-02  0.00D+00 EMaxC= 1.00D-01 BMatC= 7.85D-02 BMatP= 7.87D-01
 IDIUse=3 WtCom= 8.97D-01 WtEn= 1.03D-01
 Coeff-Com:  0.206D+00-0.157D-02 0.293D+00 0.502D+00
 Coeff-En:   0.000D+00 0.000D+00 0.120D-01 0.988D+00
 Coeff:      0.185D+00-0.140D-02 0.264D+00 0.552D+00
 Gap=     0.094 Goal=   None    Shift=    0.000
 Gap=     0.094 Goal=   None    Shift=    0.000
 RMSDP=2.13D-03 MaxDP=8.21D-02 DE=-1.67D-01 OVMax= 5.18D-02

 Cycle   5  Pass 1  IDiag  1:
 RMSU=  1.84D-03    CP:  6.42D-01  1.03D+00  8.03D-01  8.83D-01
 E= -454.200189068817     Delta-E=       -0.006292972502 Rises=F Damp=F
 DIIS: error= 7.01D-03 at cycle   5 NSaved=   5.
 NSaved= 5 IEnMin= 5 EnMin= -454.200189068817     IErMin= 5 ErrMin= 7.01D-03
 ErrMax= 7.01D-03  0.00D+00 EMaxC= 1.00D-01 BMatC= 4.38D-02 BMatP= 7.85D-02
 IDIUse=3 WtCom= 9.30D-01 WtEn= 7.01D-02
 Coeff-Com:  0.463D-01-0.106D-01 0.100D+00 0.438D+00 0.426D+00
 Coeff-En:   0.000D+00 0.000D+00 0.000D+00 0.405D+00 0.595D+00
 Coeff:      0.430D-01-0.988D-02 0.930D-01 0.436D+00 0.438D+00
 Gap=     0.105 Goal=   None    Shift=    0.000
 Gap=     0.105 Goal=   None    Shift=    0.000
 RMSDP=1.02D-03 MaxDP=2.37D-02 DE=-6.29D-03 OVMax= 2.47D-02

 Cycle   6  Pass 1  IDiag  1:
 RMSU=  6.96D-04    CP:  6.42D-01  1.06D+00  8.24D-01  8.56D-01  6.90D-01
 E= -454.209126101780     Delta-E=       -0.008937032963 Rises=F Damp=F
 DIIS: error= 9.95D-04 at cycle   6 NSaved=   6.
 NSaved= 6 IEnMin= 6 EnMin= -454.209126101780     IErMin= 6 ErrMin= 9.95D-04
 ErrMax= 9.95D-04  0.00D+00 EMaxC= 1.00D-01 BMatC= 1.59D-03 BMatP= 4.38D-02
 IDIUse=3 WtCom= 9.90D-01 WtEn= 9.95D-03
 Coeff-Com:  0.116D-01-0.105D-01 0.209D-01 0.165D+00 0.230D+00 0.583D+00
 Coeff-En:   0.000D+00 0.000D+00 0.000D+00 0.000D+00 0.000D+00 0.100D+01
 Coeff:      0.115D-01-0.104D-01 0.206D-01 0.163D+00 0.228D+00 0.587D+00
 Gap=     0.106 Goal=   None    Shift=    0.000
 Gap=     0.106 Goal=   None    Shift=    0.000
 RMSDP=3.05D-04 MaxDP=1.55D-02 DE=-8.94D-03 OVMax= 5.24D-03

 Cycle   7  Pass 1  IDiag  1:
 RMSU=  1.96D-04    CP:  6.41D-01  1.07D+00  8.31D-01  8.64D-01  6.50D-01
                    CP:  7.84D-01
 E= -454.209428377080     Delta-E=       -0.000302275300 Rises=F Damp=F
 DIIS: error= 7.45D-04 at cycle   7 NSaved=   7.
 NSaved= 7 IEnMin= 7 EnMin= -454.209428377080     IErMin= 7 ErrMin= 7.45D-04
 ErrMax= 7.45D-04  0.00D+00 EMaxC= 1.00D-01 BMatC= 3.32D-04 BMatP= 1.59D-03
 IDIUse=3 WtCom= 9.93D-01 WtEn= 7.45D-03
 Coeff-Com:  0.635D-02-0.834D-02 0.405D-02 0.588D-01 0.102D+00 0.340D+00
 Coeff-Com:  0.498D+00
 Coeff-En:   0.000D+00 0.000D+00 0.000D+00 0.000D+00 0.000D+00 0.000D+00
 Coeff-En:   0.100D+01
 Coeff:      0.630D-02-0.828D-02 0.402D-02 0.584D-01 0.101D+00 0.337D+00
 Coeff:      0.501D+00
 Gap=     0.107 Goal=   None    Shift=    0.000
 Gap=     0.107 Goal=   None    Shift=    0.000
 RMSDP=1.30D-04 MaxDP=5.86D-03 DE=-3.02D-04 OVMax= 4.58D-03

 Cycle   8  Pass 1  IDiag  1:
 RMSU=  8.24D-05    CP:  6.41D-01  1.06D+00  8.31D-01  8.72D-01  6.56D-01
                    CP:  8.29D-01  7.09D-01
 E= -454.209511006322     Delta-E=       -0.000082629243 Rises=F Damp=F
 DIIS: error= 3.61D-04 at cycle   8 NSaved=   8.
 NSaved= 8 IEnMin= 8 EnMin= -454.209511006322     IErMin= 8 ErrMin= 3.61D-04
 ErrMax= 3.61D-04  0.00D+00 EMaxC= 1.00D-01 BMatC= 1.57D-04 BMatP= 3.32D-04
 IDIUse=3 WtCom= 9.96D-01 WtEn= 3.61D-03
 Coeff-Com:  0.513D-02-0.514D-02-0.230D-02-0.107D-01-0.113D-02 0.388D-01
 Coeff-Com:  0.366D+00 0.609D+00
 Coeff-En:   0.000D+00 0.000D+00 0.000D+00 0.000D+00 0.000D+00 0.000D+00
 Coeff-En:   0.000D+00 0.100D+01
 Coeff:      0.511D-02-0.512D-02-0.230D-02-0.106D-01-0.112D-02 0.387D-01
 Coeff:      0.364D+00 0.611D+00
 Gap=     0.109 Goal=   None    Shift=    0.000
 Gap=     0.109 Goal=   None    Shift=    0.000
 RMSDP=6.36D-05 MaxDP=1.76D-03 DE=-8.26D-05 OVMax= 1.63D-03

 Cycle   9  Pass 1  IDiag  1:
 RMSU=  5.70D-05    CP:  6.41D-01  1.06D+00  8.32D-01  8.73D-01  6.48D-01
                    CP:  8.36D-01  7.82D-01  1.07D+00
 E= -454.209543002929     Delta-E=       -0.000031996607 Rises=F Damp=F
 DIIS: error= 2.20D-04 at cycle   9 NSaved=   9.
 NSaved= 9 IEnMin= 9 EnMin= -454.209543002929     IErMin= 9 ErrMin= 2.20D-04
 ErrMax= 2.20D-04  0.00D+00 EMaxC= 1.00D-01 BMatC= 3.04D-05 BMatP= 1.57D-04
 IDIUse=3 WtCom= 9.98D-01 WtEn= 2.20D-03
 Coeff-Com:  0.311D-02-0.127D-02-0.127D-05-0.171D-01-0.326D-01-0.104D+00
 Coeff-Com: -0.226D-01 0.169D+00 0.101D+01
 Coeff-En:   0.000D+00 0.000D+00 0.000D+00 0.000D+00 0.000D+00 0.000D+00
 Coeff-En:   0.000D+00 0.000D+00 0.100D+01
 Coeff:      0.311D-02-0.127D-02-0.127D-05-0.171D-01-0.325D-01-0.104D+00
 Coeff:     -0.226D-01 0.168D+00 0.101D+01
 Gap=     0.109 Goal=   None    Shift=    0.000
 Gap=     0.109 Goal=   None    Shift=    0.000
 RMSDP=5.17D-05 MaxDP=1.97D-03 DE=-3.20D-05 OVMax= 1.88D-03

 Cycle  10  Pass 1  IDiag  1:
 RMSU=  3.81D-05    CP:  6.41D-01  1.06D+00  8.31D-01  8.73D-01  6.52D-01
                    CP:  8.31D-01  8.03D-01  1.09D+00  1.00D+00
 E= -454.209552782254     Delta-E=       -0.000009779326 Rises=F Damp=F
 DIIS: error= 5.47D-05 at cycle  10 NSaved=  10.
 NSaved=10 IEnMin=10 EnMin= -454.209552782254     IErMin=10 ErrMin= 5.47D-05
 ErrMax= 5.47D-05  0.00D+00 EMaxC= 1.00D-01 BMatC= 4.32D-06 BMatP= 3.04D-05
 IDIUse=1 WtCom= 1.00D+00 WtEn= 0.00D+00
 Coeff-Com:  0.818D-03-0.862D-04 0.247D-03-0.541D-02-0.160D-01-0.487D-01
 Coeff-Com: -0.609D-01-0.553D-01 0.503D+00 0.682D+00
 Coeff:      0.818D-03-0.862D-04 0.247D-03-0.541D-02-0.160D-01-0.487D-01
 Coeff:     -0.609D-01-0.553D-01 0.503D+00 0.682D+00
 Gap=     0.110 Goal=   None    Shift=    0.000
 Gap=     0.110 Goal=   None    Shift=    0.000
 RMSDP=2.29D-05 MaxDP=9.35D-04 DE=-9.78D-06 OVMax= 8.53D-04

 Cycle  11  Pass 1  IDiag  1:
 RMSU=  1.47D-05    CP:  6.41D-01  1.06D+00  8.32D-01  8.73D-01  6.46D-01
                    CP:  8.37D-01  8.12D-01  1.18D+00  1.09D+00  9.05D-01
 E= -454.209553877801     Delta-E=       -0.000001095547 Rises=F Damp=F
 DIIS: error= 1.65D-05 at cycle  11 NSaved=  11.
 NSaved=11 IEnMin=11 EnMin= -454.209553877801     IErMin=11 ErrMin= 1.65D-05
 ErrMax= 1.65D-05  0.00D+00 EMaxC= 1.00D-01 BMatC= 5.20D-07 BMatP= 4.32D-06
 IDIUse=1 WtCom= 1.00D+00 WtEn= 0.00D+00
 Coeff-Com:  0.191D-03 0.158D-04 0.275D-03 0.429D-03-0.312D-02-0.745D-02
 Coeff-Com: -0.184D-01-0.431D-01 0.133D+00 0.369D+00 0.570D+00
 Coeff:      0.191D-03 0.158D-04 0.275D-03 0.429D-03-0.312D-02-0.745D-02
 Coeff:     -0.184D-01-0.431D-01 0.133D+00 0.369D+00 0.570D+00
 Gap=     0.109 Goal=   None    Shift=    0.000
 Gap=     0.109 Goal=   None    Shift=    0.000
 RMSDP=7.39D-06 MaxDP=2.43D-04 DE=-1.10D-06 OVMax= 1.97D-04

 Cycle  12  Pass 1  IDiag  1:
 RMSU=  5.82D-06    CP:  6.41D-01  1.06D+00  8.32D-01  8.73D-01  6.46D-01
                    CP:  8.36D-01  8.08D-01  1.17D+00  1.08D+00  9.40D-01
                    CP:  8.33D-01
 E= -454.209553994023     Delta-E=       -0.000000116221 Rises=F Damp=F
 DIIS: error= 6.81D-06 at cycle  12 NSaved=  12.
 NSaved=12 IEnMin=12 EnMin= -454.209553994023     IErMin=12 ErrMin= 6.81D-06
 ErrMax= 6.81D-06  0.00D+00 EMaxC= 1.00D-01 BMatC= 7.54D-08 BMatP= 5.20D-07
 IDIUse=1 WtCom= 1.00D+00 WtEn= 0.00D+00
 Coeff-Com:  0.334D-04 0.338D-05 0.173D-03 0.108D-02 0.192D-03 0.206D-02
 Coeff-Com: -0.204D-02-0.188D-01 0.200D-01 0.161D+00 0.337D+00 0.499D+00
 Coeff:      0.334D-04 0.338D-05 0.173D-03 0.108D-02 0.192D-03 0.206D-02
 Coeff:     -0.204D-02-0.188D-01 0.200D-01 0.161D+00 0.337D+00 0.499D+00
 Gap=     0.109 Goal=   None    Shift=    0.000
 Gap=     0.109 Goal=   None    Shift=    0.000
 RMSDP=3.83D-06 MaxDP=1.29D-04 DE=-1.16D-07 OVMax= 8.59D-05

 Cycle  13  Pass 1  IDiag  1:
 RMSU=  2.24D-06    CP:  6.41D-01  1.06D+00  8.32D-01  8.73D-01  6.46D-01
                    CP:  8.35D-01  8.04D-01  1.16D+00  1.05D+00  9.56D-01
                    CP:  8.89D-01  8.16D-01
 E= -454.209554014110     Delta-E=       -0.000000020087 Rises=F Damp=F
 DIIS: error= 2.25D-06 at cycle  13 NSaved=  13.
 NSaved=13 IEnMin=13 EnMin= -454.209554014110     IErMin=13 ErrMin= 2.25D-06
 ErrMax= 2.25D-06  0.00D+00 EMaxC= 1.00D-01 BMatC= 5.54D-09 BMatP= 7.54D-08
 IDIUse=1 WtCom= 1.00D+00 WtEn= 0.00D+00
 Coeff-Com: -0.192D-04-0.920D-06 0.165D-04 0.299D-03 0.520D-03 0.189D-02
 Coeff-Com:  0.267D-02-0.223D-03-0.117D-01 0.167D-01 0.385D-01 0.205D+00
 Coeff-Com:  0.746D+00
 Coeff:     -0.192D-04-0.920D-06 0.165D-04 0.299D-03 0.520D-03 0.189D-02
 Coeff:      0.267D-02-0.223D-03-0.117D-01 0.167D-01 0.385D-01 0.205D+00
 Coeff:      0.746D+00
 Gap=     0.109 Goal=   None    Shift=    0.000
 Gap=     0.109 Goal=   None    Shift=    0.000
 RMSDP=1.01D-06 MaxDP=5.55D-05 DE=-2.01D-08 OVMax= 2.39D-05

 Cycle  14  Pass 1  IDiag  1:
 RMSU=  6.20D-07    CP:  6.41D-01  1.06D+00  8.32D-01  8.73D-01  6.46D-01
                    CP:  8.35D-01  8.03D-01  1.16D+00  1.04D+00  9.64D-01
                    CP:  8.78D-01  8.64D-01  8.90D-01
 E= -454.209554015584     Delta-E=       -0.000000001474 Rises=F Damp=F
 DIIS: error= 8.49D-07 at cycle  14 NSaved=  14.
 NSaved=14 IEnMin=14 EnMin= -454.209554015584     IErMin=14 ErrMin= 8.49D-07
 ErrMax= 8.49D-07  0.00D+00 EMaxC= 1.00D-01 BMatC= 9.39D-10 BMatP= 5.54D-09
 IDIUse=1 WtCom= 1.00D+00 WtEn= 0.00D+00
 Coeff-Com: -0.141D-04-0.132D-06-0.356D-06 0.138D-03 0.365D-03 0.116D-02
 Coeff-Com:  0.192D-02 0.105D-02-0.902D-02-0.152D-02-0.195D-02 0.832D-01
 Coeff-Com:  0.442D+00 0.482D+00
 Coeff:     -0.141D-04-0.132D-06-0.356D-06 0.138D-03 0.365D-03 0.116D-02
 Coeff:      0.192D-02 0.105D-02-0.902D-02-0.152D-02-0.195D-02 0.832D-01
 Coeff:      0.442D+00 0.482D+00
 Gap=     0.109 Goal=   None    Shift=    0.000
 Gap=     0.109 Goal=   None    Shift=    0.000
 RMSDP=2.74D-07 MaxDP=1.13D-05 DE=-1.47D-09 OVMax= 6.66D-06

 Cycle  15  Pass 1  IDiag  1:
 RMSU=  1.65D-07    CP:  6.41D-01  1.06D+00  8.32D-01  8.73D-01  6.46D-01
                    CP:  8.35D-01  8.03D-01  1.16D+00  1.04D+00  9.61D-01
                    CP:  8.83D-01  8.63D-01  9.02D-01  7.81D-01
 E= -454.209554015810     Delta-E=       -0.000000000226 Rises=F Damp=F
 DIIS: error= 1.13D-07 at cycle  15 NSaved=  15.
 NSaved=15 IEnMin=15 EnMin= -454.209554015810     IErMin=15 ErrMin= 1.13D-07
 ErrMax= 1.13D-07  0.00D+00 EMaxC= 1.00D-01 BMatC= 3.39D-11 BMatP= 9.39D-10
 IDIUse=1 WtCom= 1.00D+00 WtEn= 0.00D+00
 Coeff-Com: -0.202D-05 0.810D-07-0.257D-05 0.421D-06 0.469D-04 0.130D-03
 Coeff-Com:  0.309D-03 0.350D-03-0.115D-02-0.297D-02-0.743D-02-0.477D-02
 Coeff-Com:  0.476D-01 0.167D+00 0.801D+00
 Coeff:     -0.202D-05 0.810D-07-0.257D-05 0.421D-06 0.469D-04 0.130D-03
 Coeff:      0.309D-03 0.350D-03-0.115D-02-0.297D-02-0.743D-02-0.477D-02
 Coeff:      0.476D-01 0.167D+00 0.801D+00
 Gap=     0.109 Goal=   None    Shift=    0.000
 Gap=     0.109 Goal=   None    Shift=    0.000
 RMSDP=1.03D-07 MaxDP=3.64D-06 DE=-2.26D-10 OVMax= 8.26D-07

 Cycle  16  Pass 1  IDiag  1:
 RMSU=  4.77D-08    CP:  6.41D-01  1.06D+00  8.32D-01  8.73D-01  6.46D-01
                    CP:  8.35D-01  8.02D-01  1.15D+00  1.04D+00  9.62D-01
                    CP:  8.82D-01  8.65D-01  9.17D-01  8.23D-01  1.00D+00
 E= -454.209554015843     Delta-E=       -0.000000000033 Rises=F Damp=F
 DIIS: error= 6.10D-08 at cycle  16 NSaved=  16.
 NSaved=16 IEnMin=16 EnMin= -454.209554015843     IErMin=16 ErrMin= 6.10D-08
 ErrMax= 6.10D-08  0.00D+00 EMaxC= 1.00D-01 BMatC= 4.71D-12 BMatP= 3.39D-11
 IDIUse=1 WtCom= 1.00D+00 WtEn= 0.00D+00
 Coeff-Com: -0.372D-06 0.179D-06-0.112D-05-0.568D-05 0.285D-05 0.782D-05
 Coeff-Com:  0.647D-04 0.882D-04-0.179D-04-0.104D-02-0.285D-02-0.477D-02
 Coeff-Com:  0.526D-02 0.567D-01 0.375D+00 0.571D+00
 Coeff:     -0.372D-06 0.179D-06-0.112D-05-0.568D-05 0.285D-05 0.782D-05
 Coeff:      0.647D-04 0.882D-04-0.179D-04-0.104D-02-0.285D-02-0.477D-02
 Coeff:      0.526D-02 0.567D-01 0.375D+00 0.571D+00
 Gap=     0.109 Goal=   None    Shift=    0.000
 Gap=     0.109 Goal=   None    Shift=    0.000
 RMSDP=2.83D-08 MaxDP=1.05D-06 DE=-3.33D-11 OVMax= 5.49D-07

 Cycle  17  Pass 1  IDiag  1:
 RMSU=  1.64D-08    CP:  6.41D-01  1.06D+00  8.32D-01  8.73D-01  6.46D-01
                    CP:  8.35D-01  8.02D-01  1.15D+00  1.04D+00  9.62D-01
                    CP:  8.82D-01  8.66D-01  9.20D-01  8.37D-01  9.55D-01
                    CP:  7.59D-01
 E= -454.209554015845     Delta-E=       -0.000000000002 Rises=F Damp=F
 DIIS: error= 3.25D-08 at cycle  17 NSaved=  17.
 NSaved=17 IEnMin=17 EnMin= -454.209554015845     IErMin=17 ErrMin= 3.25D-08
 ErrMax= 3.25D-08  0.00D+00 EMaxC= 1.00D-01 BMatC= 1.06D-12 BMatP= 4.71D-12
 IDIUse=1 WtCom= 1.00D+00 WtEn= 0.00D+00
 Coeff-Com:  0.113D-06 0.454D-07-0.261D-06-0.231D-05-0.552D-05-0.137D-04
 Coeff-Com: -0.114D-04 0.437D-05 0.203D-03-0.161D-03-0.389D-03-0.211D-02
 Coeff-Com: -0.729D-02-0.183D-02 0.505D-01 0.286D+00 0.675D+00
 Coeff:      0.113D-06 0.454D-07-0.261D-06-0.231D-05-0.552D-05-0.137D-04
 Coeff:     -0.114D-04 0.437D-05 0.203D-03-0.161D-03-0.389D-03-0.211D-02
 Coeff:     -0.729D-02-0.183D-02 0.505D-01 0.286D+00 0.675D+00
 Gap=     0.109 Goal=   None    Shift=    0.000
 Gap=     0.109 Goal=   None    Shift=    0.000
 RMSDP=9.22D-09 MaxDP=3.54D-07 DE=-1.71D-12 OVMax= 2.27D-07

 SCF Done:  E(UB3LYP) =  -454.209554016     A.U. after   17 cycles
            NFock= 17  Conv=0.92D-08     -V/T= 2.0063
 <Sx>= 0.0000 <Sy>= 0.0000 <Sz>= 0.0000 <S**2>=-0.0000 S=-0.0000
 <L.S>= 0.000000000000E+00
 KE= 4.513592275981D+02 PE=-1.935393223898D+03 EE= 5.841671256848D+02
 Annihilation of the first spin contaminant:
 S**2 before annihilation    -0.0000,   after     0.0000
 Leave Link  502 at Sat Aug  8 23:51:16 2020, MaxMem=   524288000 cpu:            1432.8 elap:             204.7
 (Enter /home/ubuntu/g16/l601.exe)
 Copying SCF densities to generalized density rwf, IOpCl= 1 IROHF=0.

 **********************************************************************

            Population analysis using the SCF density.

 **********************************************************************

 Orbital symmetries:
 Alpha Orbitals:
       Occupied  (A) (A) (A) (A) (A) (A) (A) (A) (A) (A) (A) (A)
                 (A) (A) (A) (A) (A) (A) (A) (A) (A) (A) (A) (A)
                 (A) (A) (A) (A) (A) (A) (A) (A) (A) (A)
       Virtual   (A) (A) (A) (A) (A) (A) (A) (A) (A) (A) (A) (A)
                 (A) (A) (A) (A) (A) (A) (A) (A) (A) (A) (A) (A)
                 (A) (A) (A) (A) (A) (A) (A) (A) (A) (A) (A) (A)
                 (A) (A) (A) (A) (A) (A) (A) (A) (A) (A) (A) (A)
                 (A) (A) (A) (A) (A) (A) (A) (A) (A) (A) (A) (A)
                 (A) (A) (A) (A) (A) (A) (A) (A) (A) (A) (A) (A)
                 (A) (A) (A) (A) (A) (A) (A) (A) (A) (A) (A) (A)
                 (A) (A) (A) (A) (A) (A) (A) (A) (A) (A) (A) (A)
                 (A) (A) (A) (A) (A) (A) (A) (A) (A) (A) (A) (A)
                 (A) (A) (A) (A) (A) (A) (A) (A) (A) (A) (A) (A)
                 (A) (A) (A) (A) (A) (A) (A) (A) (A) (A) (A) (A)
                 (A) (A) (A) (A) (A) (A) (A) (A) (A) (A) (A) (A)
                 (A) (A) (A) (A) (A) (A) (A) (A) (A) (A) (A) (A)
                 (A) (A) (A) (A) (A) (A) (A) (A) (A) (A) (A) (A)
                 (A) (A) (A) (A) (A) (A) (A) (A) (A) (A) (A) (A)
                 (A) (A) (A) (A) (A) (A) (A) (A) (A) (A) (A) (A)
                 (A) (A) (A) (A) (A) (A) (A) (A) (A) (A) (A) (A)
                 (A) (A) (A) (A) (A) (A) (A) (A) (A) (A) (A) (A)
                 (A) (A) (A) (A) (A) (A) (A) (A) (A) (A) (A) (A)
                 (A) (A) (A) (A) (A) (A) (A) (A) (A) (A) (A) (A)
                 (A)
 Beta  Orbitals:
       Occupied  (A) (A) (A) (A) (A) (A) (A) (A) (A) (A) (A) (A)
                 (A) (A) (A) (A) (A) (A) (A) (A) (A) (A) (A) (A)
                 (A) (A) (A) (A) (A) (A) (A) (A) (A) (A)
       Virtual   (A) (A) (A) (A) (A) (A) (A) (A) (A) (A) (A) (A)
                 (A) (A) (A) (A) (A) (A) (A) (A) (A) (A) (A) (A)
                 (A) (A) (A) (A) (A) (A) (A) (A) (A) (A) (A) (A)
                 (A) (A) (A) (A) (A) (A) (A) (A) (A) (A) (A) (A)
                 (A) (A) (A) (A) (A) (A) (A) (A) (A) (A) (A) (A)
                 (A) (A) (A) (A) (A) (A) (A) (A) (A) (A) (A) (A)
                 (A) (A) (A) (A) (A) (A) (A) (A) (A) (A) (A) (A)
                 (A) (A) (A) (A) (A) (A) (A) (A) (A) (A) (A) (A)
                 (A) (A) (A) (A) (A) (A) (A) (A) (A) (A) (A) (A)
                 (A) (A) (A) (A) (A) (A) (A) (A) (A) (A) (A) (A)
                 (A) (A) (A) (A) (A) (A) (A) (A) (A) (A) (A) (A)
                 (A) (A) (A) (A) (A) (A) (A) (A) (A) (A) (A) (A)
                 (A) (A) (A) (A) (A) (A) (A) (A) (A) (A) (A) (A)
                 (A) (A) (A) (A) (A) (A) (A) (A) (A) (A) (A) (A)
                 (A) (A) (A) (A) (A) (A) (A) (A) (A) (A) (A) (A)
                 (A) (A) (A) (A) (A) (A) (A) (A) (A) (A) (A) (A)
                 (A) (A) (A) (A) (A) (A) (A) (A) (A) (A) (A) (A)
                 (A) (A) (A) (A) (A) (A) (A) (A) (A) (A) (A) (A)
                 (A) (A) (A) (A) (A) (A) (A) (A) (A) (A) (A) (A)
                 (A) (A) (A) (A) (A) (A) (A) (A) (A) (A) (A) (A)
                 (A)
 The electronic state is 1-A.
     Natural Orbital Coefficients:
                           1         2         3         4         5
     Eigenvalues --     2.00000   2.00000   2.00000   2.00000   2.00000
   1 1   C  1S         -0.04805  -0.12929   0.11074   0.12906   0.08065
   2        2S          0.10256  -0.10577   0.01765  -0.01400   0.00670
   3        3S          0.48274  -0.14094  -0.03006  -0.10785  -0.13766
   4        4S          0.01000   0.20099  -0.30663   0.48359  -0.49358
   5        5PX         0.17018   0.03743  -0.10322   0.00048  -0.11018
   6        5PY        -0.21773  -0.01394   0.02666  -0.06874   0.14756
   7        5PZ         0.02013  -0.04124  -0.09039   0.00242   0.22119
   8        6PX         0.24158   0.13638   0.02846  -0.14821   0.09319
   9        6PY         0.03577   0.21797   0.03276  -0.06526   0.10595
  10        6PZ         0.00879  -0.02449  -0.04005  -0.00626   0.10770
  11        7PX        -0.27902  -0.25362  -0.07168   0.04930  -0.01640
  12        7PY        -0.15416  -0.16877  -0.00058  -0.02815   0.04684
  13        7PZ        -0.00021  -0.00351   0.00095  -0.00486   0.00614
  14        8D 0       -0.00303   0.00273  -0.00057   0.00014  -0.00120
  15        8D+1        0.00057  -0.00101  -0.00463   0.00240   0.00353
  16        8D-1       -0.00133  -0.00014   0.00377  -0.00138  -0.01091
  17        8D+2        0.00548   0.00471  -0.00289  -0.00210  -0.00046
  18        8D-2        0.00190  -0.00173  -0.00612   0.01205  -0.01511
  19        9D 0        0.00975  -0.00606  -0.00257  -0.00112  -0.00371
  20        9D+1       -0.00067   0.00141   0.00284   0.00007  -0.00934
  21        9D-1       -0.00042  -0.00146   0.00163  -0.00238   0.00012
  22        9D+2        0.01304   0.04585   0.03406  -0.03274   0.06047
  23        9D-2       -0.07396  -0.04037   0.04505  -0.04665   0.08161
  24 2   C  1S         -0.20351  -0.15180  -0.00163   0.13789  -0.20966
  25        2S          0.06172   0.05648   0.00768  -0.02426   0.05718
  26        3S          0.51489   0.39517   0.13473  -0.32137   0.29632
  27        4S          0.34055  -0.16729   0.26947  -0.47693   0.30684
  28        5PX        -0.15067   0.06820   0.10187  -0.02408   0.14697
  29        5PY        -0.18586   0.00008  -0.05205   0.14667  -0.09711
  30        5PZ         0.02005  -0.02102  -0.11403   0.05126   0.15143
  31        6PX         0.42534   0.18397   0.08365  -0.21985   0.16962
  32        6PY        -0.23111  -0.31652  -0.14172   0.21403  -0.26606
  33        6PZ         0.00935  -0.01567  -0.05793   0.02179   0.07986
  34        7PX        -0.28432  -0.32288  -0.08280   0.07665  -0.03375
  35        7PY         0.09863   0.08912  -0.02189   0.03703  -0.03612
  36        7PZ         0.00111   0.00036  -0.00682   0.00524   0.00448
  37        8D 0       -0.00300  -0.00101  -0.00110   0.00118  -0.00114
  38        8D+1       -0.00031   0.00336   0.00069   0.00389  -0.00953
  39        8D-1       -0.00146  -0.00180   0.00732  -0.00667  -0.00535
  40        8D+2        0.01079  -0.00340  -0.00163  -0.00715  -0.00039
  41        8D-2        0.00286  -0.00258  -0.00708   0.01430  -0.01649
  42        9D 0        0.00158   0.00711   0.00153  -0.00619   0.00439
  43        9D+1       -0.00045   0.00087   0.00318  -0.00110  -0.00560
  44        9D-1       -0.00013  -0.00021   0.00141  -0.00130  -0.00058
  45        9D+2       -0.13344  -0.07685  -0.03740   0.10928  -0.06963
  46        9D-2       -0.09587  -0.04918   0.02596  -0.01694   0.02678
  47 3   C  1S          0.06934   0.05101   0.69816   0.55124   0.15363
  48        2S          0.04694  -0.10395   0.05630   0.03558   0.01476
  49        3S          0.07633  -0.15593  -0.08656   0.04290  -0.10960
  50        4S          0.12777   0.15044   0.15629  -0.32818   0.24622
  51        5PX         0.03691   0.00893   0.01747  -0.00531   0.01327
  52        5PY         0.14396  -0.00844  -0.01056   0.07282  -0.12823
  53        5PZ         0.02697   0.00267  -0.07508   0.02671   0.22397
  54        6PX        -0.00479   0.03151   0.01279   0.06766  -0.05746
  55        6PY         0.14513   0.35851   0.06807  -0.06779   0.13845
  56        6PZ         0.01123   0.00068  -0.02736   0.00604   0.09892
  57        7PX         0.06181   0.04261   0.04029  -0.09147   0.04808
  58        7PY        -0.43495  -0.49680  -0.01229  -0.06033   0.11248
  59        7PZ         0.00092   0.00068  -0.00430   0.00331   0.00543
  60        8D 0       -0.00539   0.00535  -0.00126  -0.00009  -0.00071
  61        8D+1        0.00175   0.00390  -0.00607   0.00698   0.00450
  62        8D-1       -0.00026  -0.00547  -0.00132  -0.00476   0.00755
  63        8D+2       -0.00349  -0.00415  -0.00873   0.00204  -0.00697
  64        8D-2        0.01185   0.00300  -0.00226  -0.00107  -0.01015
  65        9D 0       -0.00503   0.00800   0.00604   0.01341  -0.00578
  66        9D+1        0.00187  -0.00148  -0.00657   0.00189   0.01804
  67        9D-1       -0.00016  -0.00302  -0.00011  -0.00308   0.00424
  68        9D+2       -0.00524  -0.04389   0.01370  -0.03190   0.02428
  69        9D-2       -0.03149   0.08012   0.02491  -0.04139   0.09571
  70 4   C  1S          0.02167  -0.02807  -0.00241  -0.08355  -0.03717
  71        2S          0.02474   0.01308   0.03048  -0.06401   0.02406
  72        3S         -0.25151   0.22384   0.12983  -0.12020   0.09715
  73        4S         -0.24113  -0.35780  -0.23369   0.22415  -0.22238
  74        5PX        -0.00963  -0.01611  -0.01887  -0.04365  -0.04140
  75        5PY         0.08957   0.09417   0.10035  -0.18178   0.21482
  76        5PZ         0.02839   0.04462  -0.14916   0.14756   0.08054
  77        6PX         0.39855  -0.16409  -0.03127  -0.05406  -0.00618
  78        6PY        -0.22607  -0.64546  -0.16507   0.27102  -0.24975
  79        6PZ         0.01369   0.02313  -0.07298   0.07456   0.03210
  80        7PX         0.06605   0.09516   0.02887  -0.14672  -0.05332
  81        7PY         0.20675   0.59230   0.04954   0.03994  -0.05191
  82        7PZ        -0.00294  -0.00292   0.01387  -0.01164  -0.01391
  83        8D 0       -0.00082   0.00171  -0.00005   0.00173  -0.00070
  84        8D+1       -0.00044   0.00015   0.00017   0.00048  -0.00254
  85        8D-1       -0.00036  -0.00461  -0.00069  -0.00416   0.00538
  86        8D+2        0.00972   0.00824   0.00060  -0.01089  -0.00035
  87        8D-2       -0.00808  -0.00416  -0.00439   0.00838  -0.01224
  88        9D 0       -0.00455   0.00469   0.00413  -0.00465   0.00622
  89        9D+1       -0.00082  -0.00107   0.00165  -0.00158  -0.00251
  90        9D-1       -0.00050  -0.00238   0.00220  -0.00396   0.00089
  91        9D+2        0.22832  -0.14797  -0.06163   0.05174  -0.08871
  92        9D-2        0.20532   0.33141   0.14385  -0.23130   0.24052
  93 5   C  1S         -0.05482   0.12411   0.01464  -0.07293  -0.01510
  94        2S          0.13136  -0.01173   0.04094  -0.02971   0.07693
  95        3S          0.11017  -0.04957   0.01146   0.00841   0.11904
  96        4S         -0.72438  -0.93040  -0.26424   0.22938  -0.07250
  97        5PX        -0.01279  -0.05759  -0.02589  -0.02032  -0.00223
  98        5PY        -0.21322  -0.07623   0.00229  -0.04226   0.07965
  99        5PZ         0.02875   0.07636  -0.07553   0.11174   0.07844
 100        6PX         0.13600  -0.17158  -0.08555   0.14796  -0.22302
 101        6PY         0.10535   0.14432   0.06091  -0.08425   0.14792
 102        6PZ         0.01417   0.04306  -0.03547   0.05932   0.02896
 103        7PX         0.17738   0.17699  -0.03945   0.08302  -0.08952
 104        7PY        -0.14898  -0.21831  -0.03934   0.03299  -0.01528
 105        7PZ         0.00005   0.00264   0.00270   0.00025  -0.00258
 106        8D 0       -0.00356   0.00368  -0.00012  -0.00049  -0.00068
 107        8D+1        0.00071   0.00409  -0.00328   0.00687  -0.00451
 108        8D-1        0.00149   0.00113  -0.00438   0.00287   0.00993
 109        8D+2       -0.00508  -0.00855  -0.00263  -0.00026   0.00269
 110        8D-2        0.00740   0.01143  -0.00045   0.00635  -0.01006
 111        9D 0        0.00203  -0.00215  -0.00064  -0.00880   0.00822
 112        9D+1       -0.00037   0.00083  -0.00030   0.00166  -0.00567
 113        9D-1        0.00029   0.00115  -0.00144   0.00207  -0.00098
 114        9D+2        0.07604  -0.02798  -0.00592   0.04557  -0.06885
 115        9D-2       -0.04325  -0.10081  -0.02604   0.00014  -0.01524
 116 6   C  1S          0.03862  -0.00800   0.10612   0.04445  -0.00282
 117        2S         -0.01634  -0.23229  -0.04611   0.07149  -0.03835
 118        3S         -0.20402  -0.60418  -0.23415   0.30305  -0.27578
 119        4S          0.44159   1.20868   0.32367  -0.26238   0.08699
 120        5PX        -0.05430  -0.09496  -0.03473   0.08001  -0.07711
 121        5PY        -0.07729   0.12893  -0.01533   0.07779  -0.10656
 122        5PZ         0.02753   0.08307  -0.09970   0.14693   0.02575
 123        6PX         0.25898  -0.20669  -0.09006   0.16084  -0.22187
 124        6PY        -0.07161  -0.55650  -0.18818   0.30770  -0.29909
 125        6PZ         0.01287   0.04328  -0.04353   0.07152   0.00372
 126        7PX         0.07390   0.13834  -0.02422   0.06160  -0.02538
 127        7PY         0.17386   0.27995   0.03456  -0.01058  -0.02639
 128        7PZ         0.00158   0.00356  -0.00743   0.00880   0.00213
 129        8D 0       -0.00250   0.00549  -0.00041  -0.00003  -0.00117
 130        8D+1       -0.00105  -0.00329   0.00129  -0.00325  -0.00282
 131        8D-1        0.00138   0.00207  -0.00723   0.00704   0.00410
 132        8D+2        0.00303  -0.00136   0.00052  -0.00441   0.00325
 133        8D-2        0.00783   0.00820  -0.00143   0.00416  -0.01071
 134        9D 0       -0.00488  -0.00590  -0.00538   0.01117  -0.01058
 135        9D+1       -0.00014  -0.00108  -0.00120  -0.00010   0.00074
 136        9D-1        0.00005   0.00010  -0.00070   0.00063   0.00031
 137        9D+2        0.01447   0.14545   0.05352  -0.08512   0.08267
 138        9D-2        0.07634  -0.17724  -0.02974  -0.00814   0.00545
 139 7   N  1S          0.04700  -0.03300  -0.02005  -0.08567   0.05656
 140        2S          0.03592   0.02987  -0.01101   0.04624  -0.06054
 141        3S          0.01277  -0.05245  -0.06675   0.08597  -0.10007
 142        4S         -0.03882  -0.12233  -0.08426   0.00008  -0.06934
 143        5PX        -0.03475  -0.12552  -0.02169  -0.03516   0.02189
 144        5PY        -0.00345  -0.05613  -0.04297   0.06400  -0.00165
 145        5PZ        -0.01471  -0.04794   0.04452  -0.06488  -0.00915
 146        6PX         0.00715   0.09006   0.03366   0.02046  -0.01631
 147        6PY        -0.00523  -0.00292  -0.01964   0.03645   0.00653
 148        6PZ        -0.00752  -0.02642   0.02375  -0.03631   0.00126
 149        7PX         0.04920   0.09436   0.01902   0.04481  -0.01323
 150        7PY         0.02918   0.02815  -0.00103   0.00202   0.00008
 151        7PZ        -0.00037  -0.00224   0.00215  -0.00383   0.00310
 152        8D 0       -0.00100  -0.00179  -0.00120   0.00017   0.00010
 153        8D+1        0.00238   0.00246  -0.00615   0.00398   0.01520
 154        8D-1        0.00019  -0.00010  -0.00062   0.00007   0.00179
 155        8D+2        0.00062   0.00180   0.00088  -0.00069   0.00036
 156        8D-2        0.00575   0.00395   0.00220  -0.00042  -0.00515
 157        9D 0        0.00204   0.01272   0.00170   0.00689  -0.00467
 158        9D+1        0.00411   0.00119  -0.01225   0.00578   0.03159
 159        9D-1        0.00032  -0.00051  -0.00110  -0.00012   0.00355
 160        9D+2       -0.00180  -0.01527  -0.00352  -0.01106   0.00737
 161        9D-2       -0.00370  -0.01402  -0.00134   0.00393  -0.00824
 162 8   N  1S          0.06246  -0.17930  -0.01780  -0.00269   0.03389
 163        2S          0.01866   0.09692   0.06158  -0.07767   0.04990
 164        3S          0.01296   0.21095   0.11837  -0.08688   0.07176
 165        4S          0.06071   0.16139   0.07367   0.02949   0.03530
 166        5PX         0.04352   0.07226  -0.01438   0.09995  -0.08743
 167        5PY        -0.01435  -0.03633  -0.03727   0.04796   0.01245
 168        5PZ        -0.02376  -0.03869   0.06131  -0.05337  -0.11947
 169        6PX         0.01922   0.08686   0.01923   0.04444  -0.03103
 170        6PY        -0.01631  -0.02606  -0.01414   0.02160   0.00467
 171        6PZ        -0.00969  -0.01571   0.02224  -0.01833  -0.05240
 172        7PX         0.00326   0.01808   0.01163   0.00608   0.00695
 173        7PY        -0.00042   0.00749   0.00175   0.00246  -0.00105
 174        7PZ        -0.00078   0.00037   0.00116   0.00094  -0.00894
 175        8D 0       -0.00193  -0.00357   0.00008  -0.00354   0.00307
 176        8D+1       -0.00156  -0.00382   0.00435  -0.00518  -0.00438
 177        8D-1       -0.00015  -0.00037   0.00040  -0.00049  -0.00039
 178        8D+2        0.00331   0.00650   0.00009   0.00533  -0.00561
 179        8D-2        0.00036  -0.00277  -0.00351   0.00607  -0.00099
 180        9D 0       -0.00037  -0.00660  -0.00187   0.00001   0.00053
 181        9D+1        0.00055  -0.00034  -0.00209   0.00082   0.00484
 182        9D-1        0.00005  -0.00013  -0.00023   0.00001   0.00058
 183        9D+2        0.00089   0.01090   0.00375  -0.00043   0.00008
 184        9D-2       -0.00363  -0.00400   0.00012   0.00182  -0.00124
 185 9   H  1S         -0.14508   0.06176  -0.00264   0.10215  -0.00378
 186        2S         -0.18152   0.12329  -0.03749   0.22363  -0.07794
 187        3S         -0.00258   0.01323   0.01682  -0.00619   0.00612
 188        4PX         0.00093  -0.00105   0.00194  -0.00244   0.00194
 189        4PY         0.00476  -0.00450  -0.00164  -0.00069  -0.00519
 190        4PZ         0.00067  -0.00075  -0.00395   0.00179   0.00509
 191        5PX         0.04004  -0.00838  -0.00198  -0.02551   0.00427
 192        5PY         0.02783  -0.02452   0.00859  -0.04522   0.01829
 193        5PZ         0.00003  -0.00080  -0.00133   0.00023   0.00132
 194 10  H  1S          0.24211   0.08076   0.02680   0.03642  -0.03366
 195        2S          0.39525   0.26659   0.05414   0.07051  -0.10278
 196        3S         -0.02193  -0.04288  -0.01594   0.02191  -0.01655
 197        4PX         0.00751  -0.00022   0.00027   0.00014   0.00008
 198        4PY         0.01169   0.00146   0.00231  -0.00012   0.00250
 199        4PZ         0.00095   0.00270  -0.00242   0.00382   0.00230
 200        5PX         0.03608   0.01660   0.00485   0.00810  -0.01487
 201        5PY         0.07589   0.06081   0.01082   0.01589  -0.02285
 202        5PZ         0.00007   0.00172  -0.00013   0.00194  -0.00313
 203 11  H  1S          0.00690  -0.26097  -0.02785   0.01521   0.02937
 204        2S         -0.05172  -0.55042  -0.07483   0.01543   0.05460
 205        3S          0.02752   0.04496   0.01481  -0.01446  -0.00103
 206        4PX        -0.00153   0.01035   0.00148  -0.00025  -0.00108
 207        4PY        -0.00150  -0.01314  -0.00279   0.00415  -0.00240
 208        4PZ         0.00093   0.00289  -0.00345   0.00513   0.00071
 209        5PX         0.01937   0.04014   0.00239   0.00393  -0.01264
 210        5PY        -0.01326  -0.11774  -0.01511   0.00377   0.01286
 211        5PZ         0.00010   0.00116  -0.00041   0.00155  -0.00144
 212 12  H  1S         -0.16610  -0.08470   0.08113  -0.07206   0.17073
 213        2S         -0.22782  -0.14594   0.15664  -0.18618   0.31524
 214        3S         -0.00619   0.00328  -0.00883   0.00813  -0.00690
 215        4PX        -0.00265  -0.00334   0.00054  -0.00238   0.00326
 216        4PY         0.00395   0.00554  -0.00319   0.00137  -0.00473
 217        4PZ         0.00064  -0.00154  -0.00297  -0.00012   0.00747
 218        5PX        -0.02825  -0.01300   0.02316  -0.02067   0.04031
 219        5PY         0.04620   0.02745  -0.02629   0.03518  -0.05816
 220        5PZ        -0.00018  -0.00052   0.00019  -0.00056  -0.00097
 221 13  C  1S          0.03704  -0.02876   0.04528   0.03524   0.01566
 222        2S         -0.07036   0.07708   0.00576  -0.01972  -0.01642
 223        3S         -0.44681   0.18456   0.05874  -0.03060   0.10361
 224        4S          0.04095  -0.16359   0.04358   0.07929   0.19574
 225        5PX        -0.09983   0.05704  -0.00345   0.11301  -0.00307
 226        5PY         0.05766   0.01644  -0.01653   0.00816  -0.07785
 227        5PZ         0.02094   0.03407  -0.14060   0.13303   0.07916
 228        6PX         0.25760  -0.13981  -0.01195   0.00126   0.01935
 229        6PY        -0.00382  -0.13103  -0.05646   0.07534  -0.09712
 230        6PZ         0.00919   0.01485  -0.06089   0.05747   0.03483
 231        7PX        -0.02525   0.03107  -0.01043   0.00026  -0.03597
 232        7PY         0.01652  -0.03100   0.00094  -0.02045   0.00038
 233        7PZ         0.00145   0.00140  -0.00705   0.00588   0.00694
 234        8D 0        0.00689  -0.00447  -0.00223   0.00005  -0.00227
 235        8D+1       -0.00051  -0.00084   0.00133  -0.00177   0.00013
 236        8D-1       -0.00128  -0.00222   0.00889  -0.00841  -0.00539
 237        8D+2        0.00091   0.00303  -0.00166   0.00020  -0.00426
 238        8D-2        0.00953  -0.01213  -0.00572   0.00204  -0.01034
 239        9D 0        0.00165   0.00118  -0.00017   0.00039  -0.00225
 240        9D+1       -0.00100  -0.00146   0.00523  -0.00496  -0.00328
 241        9D-1        0.00076   0.00119  -0.00540   0.00508   0.00269
 242        9D+2       -0.07299   0.03852   0.00069   0.01246  -0.01083
 243        9D-2       -0.02313   0.08237   0.03716  -0.02757   0.05975
 244 14  O  1S          0.03767  -0.11727  -0.00305   0.01505   0.04080
 245        2S         -0.04686   0.11846   0.04575  -0.00652  -0.02229
 246        3S         -0.03152   0.14037   0.04897  -0.01322  -0.04870
 247        4S         -0.02470   0.10574   0.01368  -0.02361  -0.04238
 248        5PX         0.03093   0.05431  -0.02131   0.04876  -0.10549
 249        5PY        -0.13904   0.06634  -0.01542   0.08397   0.01522
 250        5PZ         0.01962   0.03134  -0.14059   0.12930   0.08943
 251        6PX        -0.01125   0.04564  -0.00851   0.03529  -0.04901
 252        6PY        -0.05002   0.02890  -0.01502   0.04265  -0.00896
 253        6PZ         0.01195   0.01896  -0.08584   0.07871   0.05522
 254        7PX         0.01661  -0.02030  -0.00397   0.00237   0.00044
 255        7PY        -0.01036   0.01328  -0.00039  -0.00111  -0.00201
 256        7PZ         0.00102   0.00172  -0.00837   0.00753   0.00572
 257        8D 0        0.00398  -0.00126  -0.00011  -0.00114  -0.00146
 258        8D+1       -0.00067  -0.00111   0.00458  -0.00431  -0.00270
 259        8D-1        0.00082   0.00132  -0.00575   0.00534   0.00347
 260        8D+2        0.00431  -0.00425   0.00060  -0.00461   0.00216
 261        8D-2        0.00603  -0.00297  -0.00101  -0.00023  -0.00317
 262        9D 0       -0.00733   0.00356   0.00145   0.00240   0.00263
 263        9D+1       -0.00067  -0.00122   0.00474  -0.00458  -0.00255
 264        9D-1        0.00078   0.00122  -0.00527   0.00490   0.00316
 265        9D+2        0.00134  -0.00271   0.00203  -0.00413   0.00569
 266        9D-2       -0.00936   0.00474   0.00206   0.00291   0.00393
 267 15  H  1S         -0.02283   0.05386  -0.00974   0.02752  -0.06324
 268        2S         -0.05440   0.07421  -0.02494   0.02991  -0.10261
 269        3S          0.00435  -0.00892  -0.00073   0.00638   0.00853
 270        4PX        -0.00029  -0.00207   0.00018   0.00084   0.00220
 271        4PY         0.00161  -0.00538   0.00048  -0.00056   0.00365
 272        4PZ         0.00062   0.00096  -0.00419   0.00391   0.00243
 273        5PX         0.00763  -0.03011  -0.00730   0.00453  -0.00336
 274        5PY         0.00639  -0.01010   0.01138  -0.01117   0.03097
 275        5PZ        -0.00024  -0.00066   0.00147  -0.00168  -0.00059
                           6         7         8         9        10
     Eigenvalues --     2.00000   2.00000   2.00000   2.00000   2.00000
   1 1   C  1S         -0.20123   0.06097   0.80216   0.13347   0.13224
   2        2S          0.03535   0.00238   0.06789  -0.00582   0.07173
   3        3S          0.16211   0.11211  -0.10255  -0.00736   0.26908
   4        4S          0.16395  -0.14680  -0.08958   0.06971  -0.15201
   5        5PX         0.16757  -0.05321  -0.00961   0.09659   0.02578
   6        5PY         0.05209  -0.05708  -0.01967  -0.02469  -0.00026
   7        5PZ        -0.15647  -0.00831  -0.09994   0.15177   0.12817
   8        6PX         0.13658  -0.04539  -0.01619   0.02218   0.04610
   9        6PY         0.05328  -0.01838   0.07343   0.03516  -0.10712
  10        6PZ        -0.08762  -0.01500  -0.05226   0.08287   0.06709
  11        7PX         0.12999   0.08841  -0.01895  -0.01675   0.09275
  12        7PY         0.00173   0.06243  -0.00145  -0.02628   0.07093
  13        7PZ        -0.00918  -0.00104  -0.00498   0.00814   0.00641
  14        8D 0       -0.00091   0.00097  -0.00282   0.00081   0.00018
  15        8D+1       -0.00080  -0.00874  -0.00000   0.00327   0.00258
  16        8D-1        0.00620  -0.00882   0.00498  -0.00377  -0.00357
  17        8D+2        0.00354  -0.00632  -0.00126   0.00098   0.00269
  18        8D-2       -0.00410   0.00750   0.00207   0.00098   0.00241
  19        9D 0       -0.00225   0.00335   0.00824   0.00025   0.00455
  20        9D+1        0.00295  -0.00691   0.00400  -0.00418  -0.00528
  21        9D-1       -0.00102   0.00067  -0.00107   0.00146   0.00104
  22        9D+2        0.02590  -0.00550   0.02207  -0.00303  -0.02094
  23        9D-2        0.00171   0.03613   0.02024  -0.01355   0.00510
  24 2   C  1S         -0.04716   0.10948  -0.11464   0.08570   0.04577
  25        2S          0.06371  -0.14324   0.03405  -0.03742   0.00814
  26        3S          0.14863  -0.11892   0.14323  -0.07950   0.05476
  27        4S         -0.17933   0.31741  -0.02652  -0.02257   0.12414
  28        5PX        -0.12325  -0.04286   0.01573  -0.09749  -0.04894
  29        5PY        -0.00001   0.03540   0.01319  -0.00238   0.02568
  30        5PZ        -0.06486  -0.09917  -0.03964   0.09547   0.08220
  31        6PX         0.16480  -0.04543  -0.00548  -0.04660   0.04005
  32        6PY        -0.08078   0.03880  -0.12841   0.05874  -0.01824
  33        6PZ        -0.03501  -0.05857  -0.02197   0.05587   0.04909
  34        7PX         0.07590   0.07974  -0.04431  -0.02995   0.06861
  35        7PY         0.01321  -0.09434   0.00206   0.02740  -0.06285
  36        7PZ         0.00135  -0.00720   0.00076   0.00133   0.00123
  37        8D 0       -0.00157   0.00345  -0.00056   0.00204  -0.00284
  38        8D+1        0.01070  -0.00127   0.00638  -0.00896  -0.00686
  39        8D-1       -0.00237   0.00219  -0.00083   0.00055  -0.00041
  40        8D+2        0.01751   0.00120   0.00105   0.01177   0.00558
  41        8D-2       -0.00516   0.00788   0.00127   0.00158  -0.00154
  42        9D 0        0.00854  -0.00075  -0.00244   0.00154   0.00180
  43        9D+1        0.00028  -0.00059   0.00131  -0.00285  -0.00438
  44        9D-1       -0.00194   0.00075  -0.00078   0.00029  -0.00084
  45        9D+2       -0.06485  -0.03252  -0.01898  -0.01554  -0.04355
  46        9D-2       -0.06615   0.05854   0.00041   0.00953  -0.02223
  47 3   C  1S          0.15800  -0.05152  -0.21322   0.07575   0.09986
  48        2S          0.02715   0.07295   0.05329  -0.02215  -0.01230
  49        3S         -0.02857   0.11336   0.11357   0.01523   0.02448
  50        4S         -0.31603   0.04287   0.00047  -0.24916   0.20211
  51        5PX         0.06878  -0.05886  -0.00021  -0.00497  -0.00474
  52        5PY        -0.12652   0.07366   0.01175   0.01039   0.03309
  53        5PZ        -0.12511   0.18973  -0.10286   0.07573   0.07282
  54        6PX        -0.08776   0.05616   0.05975   0.09420  -0.02322
  55        6PY         0.06937  -0.13588   0.05022  -0.00908  -0.14295
  56        6PZ        -0.06253   0.09130  -0.04860   0.03587   0.03442
  57        7PX        -0.03299   0.01499   0.00669  -0.07133   0.06472
  58        7PY         0.15624   0.20525   0.00608  -0.03444   0.17140
  59        7PZ         0.00063   0.00222  -0.00074   0.00060   0.00179
  60        8D 0        0.00084  -0.00509  -0.00173   0.00088   0.00227
  61        8D+1       -0.00058   0.00150   0.00048  -0.00211  -0.00172
  62        8D-1       -0.00956  -0.00992  -0.00482   0.01164   0.00941
  63        8D+2        0.00768   0.01362   0.00151   0.01100  -0.00564
  64        8D-2       -0.00469   0.00205  -0.00138  -0.00460   0.02009
  65        9D 0       -0.00164  -0.00075  -0.00302   0.00968   0.00224
  66        9D+1       -0.00602   0.01449  -0.00787   0.00597   0.00603
  67        9D-1       -0.00566  -0.00349  -0.00317   0.00610   0.00448
  68        9D+2        0.04404   0.01585   0.00471  -0.04049   0.01352
  69        9D-2        0.08665  -0.05282   0.02769   0.01355  -0.07737
  70 4   C  1S          0.05032   0.20334  -0.01630   0.33990   0.11504
  71        2S          0.00947  -0.10496  -0.03276  -0.03872   0.11371
  72        3S         -0.15106  -0.17415  -0.03073  -0.12832   0.23513
  73        4S          0.36405   0.12410  -0.02740   0.01965   0.06214
  74        5PX         0.20019   0.03191   0.01008   0.15931   0.12410
  75        5PY         0.10382  -0.05876   0.06026   0.04521  -0.04012
  76        5PZ         0.08332  -0.05850   0.03781  -0.03490  -0.00741
  77        6PX         0.08448  -0.01004   0.00926  -0.06632   0.05665
  78        6PY        -0.15480   0.13623  -0.11002   0.05246  -0.18207
  79        6PZ         0.04588  -0.03638   0.02265  -0.02163  -0.00953
  80        7PX         0.05684   0.30846  -0.00112  -0.08405   0.25267
  81        7PY        -0.13184  -0.20348   0.07194   0.02686  -0.09532
  82        7PZ        -0.00205  -0.00087   0.00068  -0.00074  -0.00290
  83        8D 0       -0.00246   0.00033   0.00046   0.00191  -0.00183
  84        8D+1        0.00502  -0.00124   0.00247  -0.00157   0.00118
  85        8D-1       -0.00715  -0.00849  -0.00361   0.00926   0.00756
  86        8D+2        0.01278   0.00886   0.00114   0.01252   0.00242
  87        8D-2       -0.00396   0.01456  -0.00381  -0.00538   0.00612
  88        9D 0       -0.01211  -0.00231   0.00112   0.00266  -0.00313
  89        9D+1        0.00446  -0.00022   0.00162  -0.00049   0.00209
  90        9D-1       -0.00492  -0.00201  -0.00236   0.00404   0.00222
  91        9D+2        0.00202  -0.00469  -0.04943  -0.05782  -0.02858
  92        9D-2        0.07452   0.01851   0.08375  -0.03769   0.01981
  93 5   C  1S          0.01893   0.04654   0.06670   0.19219   0.05055
  94        2S          0.02077  -0.00142   0.00119  -0.02299  -0.14635
  95        3S          0.18183  -0.00893  -0.00527   0.02139  -0.35785
  96        4S          0.61401   0.12856  -0.03347   0.16389   0.02021
  97        5PX         0.07189   0.14636  -0.01781   0.04564  -0.07772
  98        5PY         0.17629   0.05544   0.02570   0.01124  -0.00898
  99        5PZ         0.03568   0.19575  -0.00200  -0.08666  -0.06407
 100        6PX        -0.19781   0.13811  -0.03121   0.04953  -0.03388
 101        6PY         0.10680  -0.08988  -0.01088  -0.03362  -0.09873
 102        6PZ         0.02572   0.10002   0.00493  -0.05310  -0.03979
 103        7PX        -0.03233  -0.10890  -0.01384   0.05423  -0.13196
 104        7PY         0.09761   0.06656  -0.00973   0.00497   0.04826
 105        7PZ         0.00108   0.00978   0.00039  -0.00480  -0.00419
 106        8D 0        0.00022  -0.00067   0.00023   0.00268   0.00344
 107        8D+1        0.00866  -0.00109   0.00509  -0.00776  -0.00629
 108        8D-1       -0.00430   0.00916  -0.00391   0.00191   0.00206
 109        8D+2        0.00462   0.00421  -0.00215   0.00192  -0.00740
 110        8D-2       -0.01648   0.00128  -0.00421  -0.00538   0.00148
 111        9D 0        0.00851  -0.00223   0.00283   0.00351  -0.00807
 112        9D+1        0.00447  -0.00852   0.00407  -0.00225  -0.00130
 113        9D-1        0.00079  -0.00317   0.00139  -0.00104  -0.00100
 114        9D+2       -0.09101   0.01404   0.00042  -0.01021   0.01535
 115        9D-2        0.04184   0.04380  -0.00045   0.02122   0.03159
 116 6   C  1S          0.02620   0.08201  -0.17022   0.12048   0.14431
 117        2S          0.00526   0.03687  -0.07714  -0.06375  -0.05664
 118        3S         -0.02539   0.03641  -0.15929  -0.07106  -0.16958
 119        4S         -0.52057  -0.03764   0.15985  -0.11574   0.11532
 120        5PX        -0.06190  -0.12431  -0.02546  -0.04289   0.13053
 121        5PY        -0.14947   0.01318  -0.02110  -0.09990   0.05544
 122        5PZ         0.10503   0.08583   0.04638  -0.11555  -0.08680
 123        6PX        -0.16747   0.10607  -0.04702  -0.01285  -0.08787
 124        6PY        -0.15265   0.05153  -0.10196  -0.01579  -0.10805
 125        6PZ         0.05718   0.05062   0.02539  -0.06528  -0.05158
 126        7PX         0.00066  -0.15725   0.01025   0.04262  -0.11012
 127        7PY        -0.08846  -0.06385   0.02079   0.01226  -0.03868
 128        7PZ         0.00606  -0.00153   0.00299  -0.00458  -0.00345
 129        8D 0       -0.00014   0.00064   0.00191   0.00176   0.00329
 130        8D+1       -0.00009  -0.01167   0.00093   0.00396   0.00343
 131        8D-1        0.00368  -0.00294   0.00166  -0.00144  -0.00026
 132        8D+2        0.01186   0.01030   0.00154   0.00762  -0.00668
 133        8D-2       -0.00905  -0.00191  -0.00340  -0.00204   0.00724
 134        9D 0       -0.00083  -0.00038  -0.00592   0.00095   0.00128
 135        9D+1        0.00019  -0.00521   0.00046   0.00230   0.00314
 136        9D-1        0.00104  -0.00035   0.00042  -0.00010   0.00060
 137        9D+2        0.02972  -0.03220   0.01783  -0.03035   0.05936
 138        9D-2        0.07903   0.03263  -0.02531   0.00543  -0.02646
 139 7   N  1S          0.12893   0.00025  -0.00882  -0.31178   0.03736
 140        2S         -0.07393   0.10329   0.03653   0.09841  -0.04967
 141        3S         -0.10717   0.08444   0.05048   0.15467  -0.02904
 142        4S          0.11913   0.06662   0.02989   0.03243   0.06005
 143        5PX         0.02308   0.08680   0.01661  -0.06697   0.03708
 144        5PY         0.07856  -0.04437   0.03506   0.14473  -0.21124
 145        5PZ         0.01547   0.01697  -0.01824   0.02812   0.02532
 146        6PX        -0.04314   0.04897   0.00502   0.03974  -0.02037
 147        6PY         0.05197  -0.03785   0.02303   0.09228  -0.13206
 148        6PZ         0.00356   0.01653  -0.01356   0.01818   0.01685
 149        7PX        -0.04374  -0.05108   0.00227   0.07243  -0.09648
 150        7PY         0.00679  -0.02807  -0.00050   0.01330  -0.01933
 151        7PZ        -0.00324   0.00519  -0.00324   0.00309   0.00263
 152        8D 0        0.00261  -0.00402  -0.00155   0.00001   0.00174
 153        8D+1       -0.01017   0.01299  -0.00639   0.00400   0.00400
 154        8D-1       -0.00145   0.00060  -0.00085   0.00103   0.00092
 155        8D+2        0.00000   0.00587   0.00264   0.00182  -0.00482
 156        8D-2       -0.01073   0.00774  -0.00087  -0.00807   0.01161
 157        9D 0       -0.00809  -0.00054  -0.00192   0.00832  -0.00209
 158        9D+1       -0.01623   0.02523  -0.01352   0.00972   0.00961
 159        9D-1       -0.00255   0.00128  -0.00176   0.00212   0.00181
 160        9D+2        0.00967   0.00066   0.00314  -0.01040   0.00059
 161        9D-2       -0.00912   0.01342   0.00104  -0.00255   0.00832
 162 8   N  1S          0.08560   0.02756   0.06276  -0.24904   0.12750
 163        2S          0.03217   0.13755   0.00003  -0.09693  -0.02815
 164        3S          0.02464   0.16120  -0.01736  -0.10525  -0.05093
 165        4S         -0.07896  -0.06838  -0.01567   0.02910  -0.12461
 166        5PX        -0.10469  -0.07572   0.00859   0.15152  -0.01215
 167        5PY         0.09193  -0.07752   0.02623   0.14454  -0.17944
 168        5PZ         0.08946  -0.09646   0.04298  -0.02079  -0.02250
 169        6PX        -0.05094  -0.03395  -0.00368   0.06758  -0.01596
 170        6PY         0.03878  -0.02557   0.01046   0.06377  -0.07261
 171        6PZ         0.04387  -0.04765   0.02134  -0.01142  -0.01215
 172        7PX        -0.01157  -0.01226  -0.00433  -0.00058  -0.01408
 173        7PY        -0.00541  -0.00014   0.00022  -0.00091  -0.00242
 174        7PZ         0.00680  -0.00968   0.00505  -0.00396  -0.00394
 175        8D 0        0.00404   0.00128  -0.00062  -0.00605   0.00168
 176        8D+1        0.00377  -0.00226   0.00044   0.00081   0.00061
 177        8D-1        0.00033  -0.00023   0.00003   0.00010   0.00008
 178        8D+2       -0.00779  -0.00144   0.00058   0.00858   0.00031
 179        8D-2        0.00586  -0.00538   0.00271   0.01413  -0.01711
 180        9D 0        0.00029  -0.00203   0.00058  -0.00189   0.00176
 181        9D+1       -0.00144   0.00325  -0.00195   0.00156   0.00153
 182        9D-1       -0.00025   0.00012  -0.00025   0.00034   0.00032
 183        9D+2        0.00023   0.00131  -0.00090   0.00188  -0.00200
 184        9D-2       -0.00056   0.00359   0.00027   0.00249  -0.00127
 185 9   H  1S         -0.03326  -0.05873   0.03555  -0.07134  -0.00041
 186        2S         -0.08438  -0.10677   0.06917  -0.09123  -0.04296
 187        3S         -0.02520   0.03433   0.00653  -0.01232   0.00217
 188        4PX        -0.00357   0.00243  -0.00117  -0.00120  -0.00071
 189        4PY        -0.00087   0.00745  -0.00264   0.00442  -0.00004
 190        4PZ        -0.00207  -0.00371  -0.00125   0.00328   0.00289
 191        5PX         0.03148   0.00471  -0.00700   0.01111   0.01729
 192        5PY         0.01585   0.02065  -0.01623   0.01439   0.00658
 193        5PZ        -0.00004  -0.00322  -0.00001   0.00174   0.00208
 194 10  H  1S         -0.16614  -0.08981  -0.01418  -0.05015  -0.04465
 195        2S         -0.33101  -0.11467  -0.03043  -0.09223  -0.03292
 196        3S          0.01335   0.00191  -0.00326   0.00332   0.00044
 197        4PX        -0.00148   0.00027  -0.00073   0.00021  -0.00457
 198        4PY        -0.00466  -0.00514  -0.00018  -0.00269  -0.00564
 199        4PZ         0.00146   0.00675   0.00009  -0.00324  -0.00244
 200        5PX        -0.03262  -0.00827  -0.00026  -0.00910   0.01044
 201        5PY        -0.06989  -0.02200  -0.00945  -0.01894  -0.00425
 202        5PZ         0.00305  -0.00053   0.00225  -0.00328  -0.00268
 203 11  H  1S          0.07300  -0.04479  -0.03264   0.00016  -0.01836
 204        2S          0.19494  -0.03512  -0.06075   0.01162  -0.01796
 205        3S         -0.00860   0.01136   0.00778  -0.00113   0.01857
 206        4PX        -0.00492   0.00007   0.00160  -0.00063   0.00194
 207        4PY        -0.00040  -0.00234  -0.00315  -0.00324   0.00015
 208        4PZ         0.00390   0.00280   0.00176  -0.00410  -0.00299
 209        5PX        -0.01691   0.01726   0.00436   0.00381  -0.01260
 210        5PY         0.03999  -0.00417  -0.01027   0.00711  -0.01067
 211        5PZ         0.00275   0.00095   0.00143  -0.00237  -0.00149
 212 12  H  1S         -0.01727  -0.01718   0.01023  -0.07202   0.01735
 213        2S          0.00503   0.00299   0.01388  -0.07821   0.04476
 214        3S          0.02005  -0.00601  -0.00635  -0.00359   0.00165
 215        4PX         0.00338  -0.00172  -0.00035  -0.00137   0.00311
 216        4PY         0.00260  -0.00055  -0.00047   0.00404  -0.00173
 217        4PZ        -0.00547  -0.00061  -0.00344   0.00537   0.00451
 218        5PX        -0.00238  -0.00398   0.00267  -0.00897   0.00208
 219        5PY        -0.00359   0.00407   0.00091   0.01190  -0.00974
 220        5PZ        -0.00084  -0.00404   0.00034   0.00106   0.00057
 221 13  C  1S         -0.07207  -0.05585   0.22847  -0.05929  -0.01402
 222        2S          0.08995   0.04774   0.02344   0.07179   0.02999
 223        3S          0.04342  -0.02485   0.04281   0.22245  -0.09499
 224        4S         -0.16869  -0.43999  -0.00440   0.09146  -0.38912
 225        5PX        -0.15357  -0.01270   0.00901  -0.07457  -0.14957
 226        5PY         0.02143   0.10867  -0.00189  -0.11061   0.22155
 227        5PZ         0.12655  -0.04291   0.05039  -0.02696   0.04733
 228        6PX        -0.07037  -0.04762  -0.01747  -0.14037  -0.04937
 229        6PY         0.01062  -0.03147  -0.03626   0.00018   0.01600
 230        6PZ         0.05307  -0.01873   0.02126  -0.01110   0.02046
 231        7PX         0.00586   0.08137   0.00244  -0.02300   0.04116
 232        7PY         0.01807   0.04796  -0.00395  -0.00874   0.01452
 233        7PZ         0.00139   0.00019  -0.00020   0.00040   0.00170
 234        8D 0       -0.00050   0.00176  -0.00095  -0.00458   0.00565
 235        8D+1        0.00120   0.00211   0.00001   0.00091   0.00320
 236        8D-1       -0.00886   0.00125  -0.00331   0.00181  -0.00396
 237        8D+2        0.01548  -0.02106  -0.00255   0.00449   0.02378
 238        8D-2       -0.00484   0.00994  -0.00349  -0.01226   0.01737
[...]
 ! D10   D(1,2,4,13)           180.0            -DE/DX =    0.0                 !
 ! D11   D(9,2,4,6)            179.9999         -DE/DX =    0.0                 !
 ! D12   D(9,2,4,13)            -0.0006         -DE/DX =    0.0                 !
 ! D13   D(1,3,5,6)             -0.0005         -DE/DX =    0.0                 !
 ! D14   D(1,3,5,10)          -180.0005         -DE/DX =    0.0                 !
 ! D15   D(7,3,5,6)            180.0            -DE/DX =    0.0                 !
 ! D16   D(7,3,5,10)             0.0            -DE/DX =    0.0                 !
 ! D17   D(2,4,6,5)             -0.0005         -DE/DX =    0.0                 !
 ! D18   D(2,4,6,11)           180.0            -DE/DX =    0.0                 !
 ! D19   D(13,4,6,5)           180.0            -DE/DX =    0.0                 !
 ! D20   D(13,4,6,11)            0.0004         -DE/DX =    0.0                 !
 ! D21   D(2,4,13,14)          179.9983         -DE/DX =    0.0                 !
 ! D22   D(2,4,13,15)            0.0023         -DE/DX =    0.0                 !
 ! D23   D(6,4,13,14)           -0.0021         -DE/DX =    0.0                 !
 ! D24   D(6,4,13,15)         -179.9982         -DE/DX =    0.0                 !
 ! D25   D(3,5,6,4)              0.0005         -DE/DX =    0.0                 !
 ! D26   D(3,5,6,11)           180.0            -DE/DX =    0.0                 !
 ! D27   D(10,5,6,4)           180.0005         -DE/DX =    0.0                 !
 ! D28   D(10,5,6,11)            0.0            -DE/DX =    0.0                 !
 --------------------------------------------------------------------------------
 GradGradGradGradGradGradGradGradGradGradGradGradGradGradGradGradGradGrad

 Leave Link  103 at Sun Aug  9 00:11:46 2020, MaxMem=   524288000 cpu:               0.1 elap:               0.0
 (Enter /home/ubuntu/g16/l9999.exe)

 ----------------------------------------------------------------------

 Electric dipole moment (input orientation):
 (Debye = 10**-18 statcoulomb cm , SI units = C m)
                  (au)            (Debye)         (10**-30 SI)
   Tot        0.250514D+01      0.636744D+01      0.212395D+02
   x         -0.241618D+01     -0.614132D+01     -0.204852D+02
   y          0.661678D+00      0.168182D+01      0.560994D+01
   z         -0.172991D-04     -0.439699D-04     -0.146668D-03

 Dipole polarizability, Alpha (input orientation).
 (esu units = cm**3 , SI units = C**2 m**2 J**-1)
 Alpha(0;0):
               (au)            (10**-24 esu)      (10**-40 SI)
   iso        0.102060D+03      0.151237D+02      0.168274D+02
   aniso      0.102299D+03      0.151592D+02      0.168668D+02
   xx         0.165586D+03      0.245373D+02      0.273014D+02
   yx         0.179667D+01      0.266239D+00      0.296231D+00
   yy         0.917088D+02      0.135898D+02      0.151207D+02
   zx         0.500642D-03      0.741875D-04      0.825447D-04
   zy         0.122021D-03      0.180816D-04      0.201185D-04
   zz         0.488847D+02      0.724397D+01      0.806001D+01

 ----------------------------------------------------------------------

 Dipole orientation:
     6          0.50682557          1.85066351          2.20081510
     6          0.73664558          2.68993755         -0.27662059
     6         -0.19080164         -0.69672499          2.54332135
     6          0.28372456          1.03610706         -2.30500808
     6         -0.66119013         -2.41434062          0.55452453
     6         -0.41057653         -1.49913781         -1.88620679
     7         -0.43139600         -1.57534200          4.99671351
     7         -0.62697171         -2.28955651          6.96640121
     1          1.27247207          4.64649604         -0.63727234
     1         -1.19499142         -4.36357617          0.94180706
     1         -0.74508129         -2.72057079         -3.51011176
     1          0.84526350          3.08645921          3.81069418
     6          0.53932189          1.96951480         -4.98808956
     8          0.16455477          0.60084960         -6.77358688
     1          1.09066372          3.98251088         -5.21454659

 Electric dipole moment (dipole orientation):
 (Debye = 10**-18 statcoulomb cm , SI units = C m)
                  (au)            (Debye)         (10**-30 SI)
   Tot        0.250514D+01      0.636744D+01      0.212395D+02
   x          0.000000D+00      0.000000D+00      0.000000D+00
   y          0.000000D+00      0.000000D+00      0.000000D+00
   z          0.250514D+01      0.636744D+01      0.212395D+02

 Dipole polarizability, Alpha (dipole orientation).
 (esu units = cm**3 , SI units = C**2 m**2 J**-1)
 Alpha(0;0):
               (au)            (10**-24 esu)      (10**-40 SI)
   iso        0.102060D+03      0.151237D+02      0.168274D+02
   aniso      0.102299D+03      0.151592D+02      0.168668D+02
   xx         0.522958D+02      0.774943D+01      0.862241D+01
   yx         0.124556D+02      0.184573D+01      0.205365D+01
   yy         0.943671D+02      0.139838D+02      0.155590D+02
   zx        -0.537893D+01     -0.797076D+00     -0.886866D+00
   zy        -0.196429D+02     -0.291077D+01     -0.323867D+01
   zz         0.159517D+03      0.236379D+02      0.263007D+02

 ----------------------------------------------------------------------
 1\1\GINC-192-168-10-17\Freq\UB3LYP\Aug-CC-pVDZ\C7H5N2O1(1+)\UBUNTU\09-
 Aug-2020\0\\#P Geom=AllCheck Guess=TCheck SCRF=Check GenChk UB3LYP/Aug
 -CC-pVDZ Freq\\4-CHOPhN2+_UB3LYP-aug-cc-pVDZ\\1,1\C,-0.85507,1.28694,0
 .\C,0.531,1.38479,0.\C,-1.39904,-0.01321,-0.00001\C,1.32659,0.22611,0.
 \C,-0.6329,-1.20011,-0.00001\C,0.74544,-1.05695,-0.00001\N,-2.77854,-0
 .13524,-0.00001\N,-3.88734,-0.23788,-0.00001\H,0.99861,2.36975,0.00001
 \H,-1.11304,-2.17747,-0.00001\H,1.39725,-1.93028,-0.00001\H,-1.49764,2
 .16591,0.\C,2.83126,0.34503,0.\O,3.54421,-0.62879,0.00003\H,3.23856,1.
 37862,0.00004\\Version=ES64L-G16RevA.03\State=1-A\HF=-454.209554\S2=0.
 \S2-1=0.\S2A=0.\RMSD=5.328e-09\RMSF=2.568e-05\ZeroPoint=0.1074495\Ther
 mal=0.1156686\Dipole=-2.4161796,0.6616781,-0.0000173\DipoleDeriv=0.477
 5092,-0.2131107,0.0000017,0.4188511,-0.0270666,0.0000015,0.0000048,-0.
 0000013,-0.0104715,-0.4759257,0.3461815,-0.0000011,0.2190978,0.0009156
 ,0.000001,0.0000097,0.0000042,-0.0562009,-1.1751432,-0.1114066,-0.0000
 046,-0.1559582,0.2569303,0.0000007,-0.000006,0.0000013,0.0650803,-0.08
 36479,-0.0614857,-0.000003,-0.1992329,0.1655927,-0.000002,-0.000002,-0
 .0000034,0.0920927,0.4666315,0.2887013,0.0000035,-0.3327089,-0.027654,
 -0.0000019,-0.0000002,-0.000001,-0.0096915,-0.3672677,-0.3722615,-0.00
 00044,-0.2390429,-0.1207334,-0.0000009,0.000003,-0.0000017,-0.0310402,
 2.1236228,0.149913,0.0000049,0.1903779,0.1562104,0.,0.0000046,-0.00000
 04,0.2637839,-0.8321416,-0.0664932,-0.0000026,-0.0878469,0.0795972,-0.
 0000003,-0.0000017,0.,0.0925033,0.0795786,-0.0315799,-0.0000004,-0.002
 6973,0.0798415,-0.0000002,-0.0000004,-0.0000023,0.1376781,0.0555746,-0
 .0160799,-0.0000003,-0.0036461,0.1170337,-0.0000002,-0.000001,0.,0.151
 618,0.1418269,0.0094601,0.0000003,-0.0279487,0.1172816,-0.0000003,0.00
 00002,0.0000015,0.1332461,0.0572909,0.0051635,-0.0000003,-0.0044315,0.
 1185215,-0.0000002,-0.0000027,0.0000003,0.1527912,1.4196138,-0.0209108
 ,0.0000052,0.0884514,0.7782907,0.0000069,-0.0000006,0.0000103,0.201856
 2,-0.8779973,0.1236943,-0.0000002,0.2220583,-0.5680332,-0.0000034,-0.0
 000047,0.0000045,-0.2729365,-0.0095249,-0.0297855,0.0000013,-0.0853232
 ,-0.126728,-0.0000007,-0.000003,-0.0000121,0.0896907\Polar=165.5858275
 ,1.7966711,91.7087647,0.0005006,0.000122,48.8847455\Quadrupole=6.51947
 23,1.9301253,-8.4495976,4.8673316,-0.000025,0.0000859\PG=C01 [X(C7H5N2
 O1)]\NImag=0\\0.70280389,-0.06321654,0.69826809,0.00000116,0.00000208,
 0.13325427,-0.35201806,0.01185190,-0.00000020,0.68966062,-0.04841906,-
 0.12472345,-0.00000011,0.04456619,0.71382346,-0.00000036,-0.00000011,-
 0.06757708,0.00000158,0.00000330,0.14208081,-0.09935439,-0.06592989,-0
 .00000057,-0.03525482,-0.02489076,-0.00000016,0.51511831,-0.02996568,-
 0.29486137,-0.00000161,-0.06812354,0.01571134,-0.00000009,-0.01123458,
 0.67385793,-0.00000034,-0.00000143,-0.05821865,-0.00000036,-0.00000006
 ,0.00935649,0.00000075,0.00000195,0.12344218,-0.03471462,0.02606611,-0
 .00000011,-0.18340342,0.11012390,0.00000016,-0.00102786,0.00353453,0.0
 0000014,0.59501499,0.06279076,0.03815781,0.00000015,0.05552245,-0.2658
 1331,-0.00000033,0.00171935,-0.04989542,-0.00000023,-0.01305759,0.6936
 2432,0.00000035,-0.00000020,0.01106324,-0.00000006,-0.00000011,-0.0703
 5986,-0.00000009,-0.00000010,-0.01242512,0.00000184,0.00000245,0.15750
 111,0.04649328,0.02541299,0.00000012,-0.04578620,0.01666205,-0.0000000
 8,-0.11981704,0.05716163,-0.00000013,-0.01900695,-0.06819654,-0.000000
 14,0.68696017,-0.00741460,-0.05118005,-0.00000016,0.02563945,-0.008981
 44,0.00000001,0.09338887,-0.26730291,-0.00000020,-0.03479607,0.0203177
 3,0.00000021,0.06493138,0.71318820,-0.00000007,-0.00000037,0.01326895,
 0.,-0.00000003,-0.00644692,0.00000003,0.00000005,-0.05790158,-0.000000
 16,0.00000008,0.01031403,0.00000026,0.00000059,0.13293375,-0.03663169,
 -0.03047504,-0.00000019,0.06112496,-0.00341525,0.00000028,-0.04860958,
 0.05579942,0.00000025,-0.15031178,-0.03782631,-0.00000058,-0.36290580,
 -0.05237362,-0.00000011,0.72295345,-0.02342499,-0.01809170,-0.00000012
 ,0.02416127,-0.04675331,-0.00000025,0.01431239,0.03110471,0.00000021,-
 0.08605426,-0.28523484,-0.00000174,0.00648549,-0.12563580,-0.00000019,
 -0.04882750,0.68801337,-0.00000018,-0.00000005,-0.00614555,0.00000033,
 -0.00000013,0.00858062,-0.00000010,0.00000015,0.00918988,-0.00000063,-
 0.00000155,-0.07220446,0.00000011,-0.00000026,-0.06623906,0.00000083,0
 .00000198,0.14215536,-0.07052024,-0.03855920,-0.00000017,0.01895724,-0
 .01562430,-0.00000027,-0.14095438,-0.00217999,-0.00000005,-0.00316346,
 0.00277006,0.00000008,-0.08078032,0.02218704,0.00000006,0.01369947,0.0
 1912421,-0.00000001,1.61181452,-0.04098504,0.00575065,0.00000010,-0.00
 537721,-0.00826340,-0.00000014,-0.00347281,-0.10013508,-0.00000017,0.0
 0024777,-0.00768845,-0.00000004,0.02485440,0.01753244,0.00000002,0.009
 54647,-0.00394599,0.00000002,0.13610880,0.14188319,-0.00000043,-0.0000
 0011,-0.00704770,0.00000014,-0.00000011,0.00877727,0.00000002,-0.00000
 005,-0.04749657,-0.00000003,0.,-0.00095840,-0.00000003,0.00000006,-0.0
 0695078,0.00000005,0.00000002,0.00829848,0.00000024,0.00000014,0.09450
 048,0.01653915,0.01880100,0.00000012,-0.00921660,0.00488732,0.00000009
 ,-0.08198959,-0.01075277,-0.00000013,0.00353018,-0.00103743,0.00000003
 ,0.01945512,-0.01435248,0.,-0.00763286,-0.00625779,-0.00000003,-1.3503
 6805,-0.12102838,0.,1.41060215,0.00388613,-0.00214234,-0.00000005,0.00
 037937,0.00189201,0.00000003,-0.00961127,0.02317144,0.00000002,0.00023
 359,0.00166777,0.00000002,0.00026013,-0.00564234,0.,-0.00225534,0.0007
 0258,-0.00000001,-0.12148511,-0.04812735,0.00000003,0.12865397,0.02963
 424,0.00000007,0.,0.00470115,-0.00000005,0.00000005,-0.00215411,-0.000
 00001,0.,0.01325095,0.,0.,0.00064375,0.00000002,-0.00000002,0.00465241
 ,-0.00000002,-0.00000002,-0.00201852,-0.00000001,0.00000003,-0.0427291
 0,0.,-0.00000002,0.02290002,-0.01033768,-0.02804488,-0.00000026,-0.109
 70606,-0.10864927,-0.00000108,-0.00408959,0.00069478,0.,0.01274807,0.0
 1549544,0.00000014,-0.00053627,0.00056915,0.,-0.00246321,0.00333986,-0
 .00000003,-0.00132186,-0.00196163,-0.00000002,-0.00007967,0.00036958,0
 .,0.11335928,0.00203214,0.00312803,-0.00000009,-0.11104477,-0.29131567
 ,-0.00000227,0.00085426,0.00178927,0.00000004,-0.01062642,-0.01748461,
 -0.00000028,0.00088656,0.00003639,-0.00000003,0.00334761,-0.00224126,0
 .,-0.00001008,0.00081780,-0.00000002,0.00031448,-0.00028208,0.,0.11645
 332,0.30454884,0.,0.00000004,0.00468582,-0.00000117,-0.00000272,-0.040
 31667,0.00000004,0.00000002,0.00646540,-0.00000009,0.00000012,0.004281
 26,0.00000003,-0.00000002,-0.00120699,-0.00000002,-0.00000003,0.006340
 48,-0.00000002,0.,0.00178865,0.,0.,-0.00061315,0.00000119,0.00000255,0
 .02675679,-0.00238823,0.00309850,0.00000004,-0.00070742,0.00035589,-0.
 00000004,0.00832460,0.01939686,-0.00000002,-0.00574007,0.00057772,0.00
 000008,-0.11315099,-0.11667430,0.00000002,-0.00668886,-0.02724769,-0.0
 0000012,0.00338257,0.00068225,0.00000001,-0.00077726,0.00002228,0.,0.0
 0004970,-0.00009110,0.,0.11593589,0.00379227,-0.00095670,0.00000004,-0
 .00025759,0.00070548,-0.00000002,-0.00994232,-0.01599075,-0.00000009,0
 .00067214,0.00077424,0.00000003,-0.11469049,-0.29334501,-0.00000004,0.
 00163818,0.00443660,-0.00000001,-0.00301353,0.00015129,0.,0.00154452,-
 0.00003123,0.,-0.00005059,-0.00002164,0.,0.12059749,0.30407888,0.,-0.0
 0000003,0.00441735,0.,-0.00000001,-0.00105778,0.,0.00000002,0.00308804
 ,-0.00000002,0.,0.00721982,0.,-0.00000004,-0.03660132,-0.00000004,-0.0
 0000003,0.00652811,0.00000001,0.00000002,-0.00391098,0.,0.,0.00074646,
 0.,0.,-0.00075696,0.00000004,0.00000010,0.02404049,-0.00010394,-0.0006
 2001,0.,-0.00185581,-0.00308503,-0.00000005,-0.00335567,-0.00152535,0.
 ,0.01422962,-0.00991446,0.,-0.01331409,0.02281890,0.,-0.15715450,0.137
 75187,0.00000007,-0.00149654,0.00118050,-0.00000002,0.00008640,-0.0001
 9544,0.,0.00051572,-0.00079434,0.,0.00112312,0.00012419,0.00000002,0.1
 6201881,-0.00080287,-0.00014812,0.00000005,-0.00312125,-0.00325060,-0.
 00000010,-0.00204965,0.00110298,-0.00000008,0.01614949,-0.01841489,0.0
 0000008,-0.00582459,0.00817360,0.00000006,0.13850666,-0.24520255,-0.00
 000017,-0.00043728,0.00126631,0.,-0.00031742,-0.00045999,0.,0.00086763
 ,-0.00069027,0.,0.00006817,0.00063938,0.,-0.14593434,0.25604253,0.0000
 0003,0.00000005,-0.00134830,-0.00000009,-0.00000003,0.00627463,0.00000
 003,-0.00000004,0.00684059,0.00000009,-0.00000031,0.00503942,-0.000000
 10,-0.00000002,0.00487895,0.00000003,0.00000020,-0.04184013,0.,-0.0000
 0002,0.00167711,0.,0.,-0.00059454,0.,0.,-0.00012175,0.,0.,-0.00449776,
 -0.00000002,0.00000014,0.02784164,-0.15858873,0.14040893,0.00000003,-0
 .01045626,0.02476754,-0.00000007,0.00935295,-0.01479527,-0.00000010,-0
 .00535618,-0.00183163,0.00000007,-0.00116108,-0.00310941,0.00000001,-0
 .00062761,-0.00059763,-0.00000004,0.00283536,-0.00016088,0.00000003,-0
 .00049304,-0.00013062,0.,0.00115610,0.00001674,0.00000002,0.00056303,-
 0.00054253,0.,0.00000063,0.00008499,0.,0.16291974,0.13853781,-0.248720
 33,-0.00000021,-0.00439560,0.00841995,0.00000002,0.01474254,-0.0166936
 7,0.00000003,-0.00174279,0.00035635,-0.00000003,-0.00388200,-0.0022062
 0,-0.00000005,-0.00001818,0.00059328,0.00000003,0.00332941,0.00070571,
 0.00000001,-0.00153500,-0.00034852,0.,-0.00005029,0.00064126,0.,0.0007
 4438,-0.00049716,0.,0.00008015,0.00000291,0.,-0.14560831,0.25736062,-0
 .00000022,0.00000007,-0.03630989,0.00000005,-0.00000002,0.00637831,0.0
 0000010,-0.00000028,0.00333861,0.,-0.00000006,0.00686502,-0.00000007,-
 0.00000002,0.00448275,0.,0.00000002,-0.00108717,0.00000006,0.00000002,
 -0.00420396,-0.00000002,0.,0.00082262,0.00000003,0.00000005,-0.0043144
 5,0.00000001,0.,0.00128104,0.,0.,-0.00071640,0.00000007,0.00000019,0.0
 2392080,0.00043390,-0.00231442,-0.00000016,-0.01552697,0.01242292,-0.0
 0000014,0.00405403,0.00117080,-0.00000002,-0.15739995,-0.02843777,0.00
 000157,0.00145592,0.00072087,-0.00000011,-0.01969617,-0.01775113,-0.00
 000036,-0.00518723,-0.00024552,0.00000004,0.00165498,0.00006746,0.,0.0
 0073713,-0.00274729,0.00000004,0.00068225,0.00000336,0.00000003,0.0003
 3004,0.00239438,0.00000006,0.00094243,0.00010027,0.00000004,0.60072946
 ,0.00346192,-0.00439219,0.,0.03305508,0.00243667,-0.00000017,0.0037502
 7,-0.00292478,0.00000001,-0.05901874,-0.11461846,-0.00000089,-0.007020
 42,-0.00676576,-0.00000005,-0.02924807,0.00930726,0.00000030,-0.003792
 68,-0.00096271,0.,0.00235865,0.00036765,0.,0.00358051,0.00065333,0.000
 00005,-0.00210868,-0.00000853,-0.00000001,-0.00076060,-0.00137238,0.00
 000001,0.00123940,0.00036901,0.,-0.16682737,0.89858312,0.00000011,-0.0
 0000010,0.00798511,0.00000002,0.00000037,0.00658966,-0.00000013,-0.000
 00003,0.00124655,0.00000012,-0.00000130,-0.08361969,0.00000009,-0.0000
 0012,0.00647146,-0.00000063,-0.00000027,0.00801293,0.00000020,0.000000
 05,-0.00202165,-0.00000017,-0.00000003,0.00040486,0.,0.00000003,-0.003
 64469,-0.00000001,0.,-0.00077805,-0.00000004,0.,-0.00340019,0.00000003
 ,0.00000001,-0.00079522,0.00001232,-0.00000240,0.17709981,-0.00174928,
 0.00280197,0.00000016,-0.00647774,-0.00759443,0.00000003,-0.00226065,0
 .00075055,0.00000001,-0.05533208,0.04723748,-0.00000192,0.00193724,0.0
 0043452,0.00000003,0.00038160,0.00360363,0.00000010,0.00262938,0.00041
 132,0.,-0.00111576,-0.00012902,0.,0.00033065,0.00044066,-0.00000002,-0
 .00011558,0.00008186,-0.00000003,-0.00094235,0.00044886,-0.00000002,-0
 .00100173,-0.00026075,-0.00000003,-0.31137294,0.31088717,-0.00000922,0
 .35898377,-0.00009302,-0.00037791,-0.00000009,-0.00217081,0.00491984,0
 .00000005,-0.00104648,0.00085851,-0.00000002,0.04653060,0.00532393,0.0
 0000122,0.00216858,0.00196361,-0.00000003,-0.00395623,-0.00766989,-0.0
 0000030,0.00083459,0.00076742,0.00000002,-0.00091240,-0.00031135,0.,-0
 .00173743,0.00018122,-0.00000001,0.00060963,0.00001310,0.00000001,0.00
 040771,0.00216497,0.00000002,0.00032678,0.00002247,0.00000002,0.296293
 88,-0.54532247,0.00001080,-0.36732322,0.58064574,-0.00000010,0.0000001
 1,-0.00200310,-0.00000013,-0.00000032,0.00116100,0.00000010,0.,-0.0002
 5429,-0.00000156,0.00000106,0.01878599,-0.00000009,0.,-0.00068310,0.00
 000017,0.00000019,-0.00062951,-0.00000012,-0.00000002,0.00026937,0.000
 00009,0.00000001,-0.00005017,0.00000004,0.,0.00066369,-0.00000002,0.,0
 .00030605,0.00000002,0.,-0.00036900,-0.00000004,0.,0.00006600,-0.00000
 938,0.00001224,-0.05636190,0.00001108,-0.00001306,0.02040344,0.0001366
 5,0.00071857,0.00000002,0.00066653,-0.00210771,0.00000011,-0.00013631,
 0.00006862,0.,-0.01006650,-0.02581156,-0.00000135,0.00015701,-0.001969
 69,0.00000004,-0.00543741,0.00138227,0.00000006,0.00047354,0.00019996,
 0.,-0.00019516,-0.00006571,0.,-0.00036230,0.00096824,0.,-0.00049276,0.
 00004304,0.,-0.00008144,-0.00003277,-0.00000003,-0.00008560,-0.0000416
 1,-0.00000001,-0.10183688,-0.08955646,-0.00000269,0.01610548,0.0300678
 1,-0.00000008,0.10115516,-0.00017924,0.00028957,0.00000001,-0.00068494
 ,0.00119243,0.00000007,-0.00058991,0.00020781,0.,0.00173775,-0.0010721
 8,-0.00000063,0.00079084,-0.00015246,0.,-0.00044279,0.00061754,0.00000
 002,0.00074807,0.00024815,0.,-0.00036626,-0.00009049,0.,-0.00087619,0.
 00023939,0.,-0.00003141,0.00005205,0.,0.00046624,0.00014614,0.,-0.0000
 6809,-0.00000569,0.,-0.09485044,-0.23534975,-0.00000700,0.00820940,-0.
 04317920,-0.00000022,0.08613700,0.27685670,-0.00000002,0.00000005,-0.0
 0072562,-0.00000007,-0.00000005,-0.00128635,0.,0.,0.00007751,0.0000002
 3,-0.00000008,0.01785390,0.,-0.00000001,-0.00097256,0.,0.00000003,0.00
 105856,0.,0.,0.00000778,0.,0.,0.00003736,-0.00000003,0.00000003,-0.000
 00743,0.,0.,-0.00002451,0.00000002,0.00000002,0.00033574,0.,0.,0.00027
 195,-0.00000391,-0.00000911,-0.05718900,-0.00000018,0.00000136,0.01869
 555,0.00000395,0.00000775,0.02186712\\0.00006612,0.00004330,0.00000087
 ,0.00000506,-0.00002434,-0.00000123,-0.00003489,-0.00000501,-0.0000008
 4,-0.00007851,-0.00002263,0.00000367,0.00004893,-0.00000376,0.00000034
 ,-0.00005162,-0.00001197,-0.00000090,0.00002015,0.00001477,-0.00000001
 ,-0.00001672,-0.00000974,0.00000006,-0.00002290,-0.00001086,0.00000032
 ,-0.00000053,0.,0.00000020,0.00000868,0.00000672,0.00000011,-0.0000072
 6,0.00000227,-0.00000013,0.00007583,0.00003560,-0.00000777,0.00000981,
 -0.00000159,0.00000261,-0.00002215,-0.00001278,0.00000270\\\@


 DIATOMIC MOLECULES ARE PECULIAR BECAUSE THEY ONLY HAVE TWO ENDS,
 AND THESE ENDS ARE VERY CLOSE TOGETHER.
 KLAUS RUEDENBERG, REV.MOD.PHYS. PG 176, 32, (1960)
 Job cpu time:       0 days  2 hours 19 minutes 38.4 seconds.
 Elapsed time:       0 days  0 hours 19 minutes 57.4 seconds.
 File lengths (MBytes):  RWF=    218 Int=      0 D2E=      0 Chk=      9 Scr=      1
 Normal termination of Gaussian 16 at Sun Aug  9 00:11:46 2020.
