 Entering Gaussian System, Link 0=/home/ubuntu/g16/g16
 Input=4-CNPhN2+_UB3LYP-aug-cc-pVDZ-Opt.gjf
 Output=4-CNPhN2+_UB3LYP-aug-cc-pVDZ-Opt.log
 Initial command:
 /home/ubuntu/g16/l1.exe "/home/ubuntu/g16/Gau-2940.inp" -scrdir="/home/ubuntu/g16/"
 Entering Link 1 = /home/ubuntu/g16/l1.exe PID=      2942.
  
 Copyright (c) 1988,1990,1992,1993,1995,1998,2003,2009,2016,
            Gaussian, Inc.  All Rights Reserved.
  
 This is part of the Gaussian(R) 16 program.  It is based on
 the Gaussian(R) 09 system (copyright 2009, Gaussian, Inc.),
 the Gaussian(R) 03 system (copyright 2003, Gaussian, Inc.),
 the Gaussian(R) 98 system (copyright 1998, Gaussian, Inc.),
 the Gaussian(R) 94 system (copyright 1995, Gaussian, Inc.),
 the Gaussian 92(TM) system (copyright 1992, Gaussian, Inc.),
 the Gaussian 90(TM) system (copyright 1990, Gaussian, Inc.),
 the Gaussian 88(TM) system (copyright 1988, Gaussian, Inc.),
 the Gaussian 86(TM) system (copyright 1986, Carnegie Mellon
 University), and the Gaussian 82(TM) system (copyright 1983,
 Carnegie Mellon University). Gaussian is a federally registered
 trademark of Gaussian, Inc.
  
 This software contains proprietary and confidential information,
 including trade secrets, belonging to Gaussian, Inc.
  
 This software is provided under written license and may be
 used, copied, transmitted, or stored only in accord with that
 written license.
  
 The following legend is applicable only to US Government
 contracts under FAR:
  
                    RESTRICTED RIGHTS LEGEND
  
 Use, reproduction and disclosure by the US Government is
 subject to restrictions as set forth in subparagraphs (a)
 and (c) of the Commercial Computer Software - Restricted
 Rights clause in FAR 52.227-19.
  
 Gaussian, Inc.
 340 Quinnipiac St., Bldg. 40, Wallingford CT 06492
  
  
 ---------------------------------------------------------------
 Warning -- This program may not be used in any manner that
 competes with the business of Gaussian, Inc. or will provide
 assistance to any competitor of Gaussian, Inc.  The licensee
 of this program is prohibited from giving any competitor of
 Gaussian, Inc. access to this program.  By using this program,
 the user acknowledges that Gaussian, Inc. is engaged in the
 business of creating and licensing software in the field of
 computational chemistry and represents and warrants to the
 licensee that it is not a competitor of Gaussian, Inc. and that
 it will not use this program in any manner prohibited above.
 ---------------------------------------------------------------
  

 Cite this work as:
 Gaussian 16, Revision A.03,
 M. J. Frisch, G. W. Trucks, H. B. Schlegel, G. E. Scuseria, 
 M. A. Robb, J. R. Cheeseman, G. Scalmani, V. Barone, 
 G. A. Petersson, H. Nakatsuji, X. Li, M. Caricato, A. V. Marenich, 
 J. Bloino, B. G. Janesko, R. Gomperts, B. Mennucci, H. P. Hratchian, 
 J. V. Ortiz, A. F. Izmaylov, J. L. Sonnenberg, D. Williams-Young, 
 F. Ding, F. Lipparini, F. Egidi, J. Goings, B. Peng, A. Petrone, 
 T. Henderson, D. Ranasinghe, V. G. Zakrzewski, J. Gao, N. Rega, 
 G. Zheng, W. Liang, M. Hada, M. Ehara, K. Toyota, R. Fukuda, 
 J. Hasegawa, M. Ishida, T. Nakajima, Y. Honda, O. Kitao, H. Nakai, 
 T. Vreven, K. Throssell, J. A. Montgomery, Jr., J. E. Peralta, 
 F. Ogliaro, M. J. Bearpark, J. J. Heyd, E. N. Brothers, K. N. Kudin, 
 V. N. Staroverov, T. A. Keith, R. Kobayashi, J. Normand, 
 K. Raghavachari, A. P. Rendell, J. C. Burant, S. S. Iyengar, 
 J. Tomasi, M. Cossi, J. M. Millam, M. Klene, C. Adamo, R. Cammi, 
 J. W. Ochterski, R. L. Martin, K. Morokuma, O. Farkas, 
 J. B. Foresman, and D. J. Fox, Gaussian, Inc., Wallingford CT, 2016.
 
 ******************************************
 Gaussian 16:  ES64L-G16RevA.03 25-Dec-2016
                 9-Aug-2020 
 ******************************************
 %chk=4-CNPhN2+_UB3LYP-aug-cc-pVDZ-Opt.chk
 %mem=500MW
 %nproc=7
 Will use up to    7 processors via shared memory.
 ----------------------------------------------------------------------
 #p opt=(maxcycles=777) freq ub3lyp/aug-cc-pVDZ pop=(Bonding,AllOrbital
 s,mk,no,nboread)
 ----------------------------------------------------------------------
 1/6=777,18=20,19=15,26=3,38=1/1,3;
 2/9=110,12=2,17=6,18=5,40=1/2;
 3/5=16,7=10,11=2,25=1,30=1,71=1,74=-5,116=2/1,2,3;
 4//1;
 5/5=2,38=5/2;
 6/7=2,8=2,9=2,10=2,15=8,20=1,22=-1,27=20,28=1,31=1,40=2,96=-1/1,2,7;
 7//1,2,3,16;
 1/6=777,18=20,19=15,26=3/3(2);
 2/9=110/2;
 99//99;
 2/9=110/2;
 3/5=16,7=10,11=2,25=1,30=1,71=1,74=-5,116=2/1,2,3;
 4/5=5,16=3,69=1/1;
 5/5=2,38=5/2;
 7//1,2,3,16;
 1/6=777,18=20,19=15,26=3/3(-5);
 2/9=110/2;
 6/7=2,8=2,9=2,10=2,15=8,19=2,20=1,22=-1,27=20,28=1,31=1,40=2,96=-1/1,2,7;
 99/9=1/99;
 Leave Link    1 at Sun Aug  9 02:05:47 2020, MaxMem=   524288000 cpu:               0.3 elap:               0.0
 (Enter /home/ubuntu/g16/l101.exe)
 ----------------------------
 4-CNPhN2+_UB3LYP-aug-cc-pVDZ
 ----------------------------
 Symbolic Z-matrix:
 Charge =  1 Multiplicity = 1
 C                    -1.24634   0.67603   0. 
 C                    -1.23068  -0.70991   0. 
 C                     0.        1.33614   0. 
 C                     0.       -1.40402   0. 
 C                     1.24634   0.67603   0. 
 C                     1.23068  -0.70991   0. 
 N                     0.        2.72024   0. 
 N                     0.        3.83416   0. 
 H                    -2.16732  -1.26466   0. 
 H                     2.18042   1.23535   0. 
 H                     2.16732  -1.26466   0. 
 H                    -2.18042   1.23535   0. 
 C                     0.       -2.83621   0. 
 N                     0.       -3.99873   0. 
 
 ITRead=  0  0  0  0  0  0  0  0  0  0  0  0  0  0
 MicOpt= -1 -1 -1 -1 -1 -1 -1 -1 -1 -1 -1 -1 -1 -1
 NAtoms=     14 NQM=       14 NQMF=       0 NMMI=      0 NMMIF=      0
                NMic=       0 NMicF=      0.
                    Isotopes and Nuclear Properties:
 (Nuclear quadrupole moments (NQMom) in fm**2, nuclear magnetic moments (NMagM)
  in nuclear magnetons)

  Atom         1           2           3           4           5           6           7           8           9          10
 IAtWgt=          12          12          12          12          12          12          14          14           1           1
 AtmWgt=  12.0000000  12.0000000  12.0000000  12.0000000  12.0000000  12.0000000  14.0030740  14.0030740   1.0078250   1.0078250
 NucSpn=           0           0           0           0           0           0           2           2           1           1
 AtZEff=  -0.0000000  -0.0000000  -0.0000000  -0.0000000  -0.0000000  -0.0000000  -0.0000000  -0.0000000  -0.0000000  -0.0000000
 NQMom=    0.0000000   0.0000000   0.0000000   0.0000000   0.0000000   0.0000000   2.0440000   2.0440000   0.0000000   0.0000000
 NMagM=    0.0000000   0.0000000   0.0000000   0.0000000   0.0000000   0.0000000   0.4037610   0.4037610   2.7928460   2.7928460
 AtZNuc=   6.0000000   6.0000000   6.0000000   6.0000000   6.0000000   6.0000000   7.0000000   7.0000000   1.0000000   1.0000000

  Atom        11          12          13          14
 IAtWgt=           1           1          12          14
 AtmWgt=   1.0078250   1.0078250  12.0000000  14.0030740
 NucSpn=           1           1           0           2
 AtZEff=  -0.0000000  -0.0000000  -0.0000000  -0.0000000
 NQMom=    0.0000000   0.0000000   0.0000000   2.0440000
 NMagM=    2.7928460   2.7928460   0.0000000   0.4037610
 AtZNuc=   1.0000000   1.0000000   6.0000000   7.0000000
 Leave Link  101 at Sun Aug  9 02:05:47 2020, MaxMem=   524288000 cpu:               1.3 elap:               0.2
 (Enter /home/ubuntu/g16/l103.exe)

 GradGradGradGradGradGradGradGradGradGradGradGradGradGradGradGradGradGrad
 Berny optimization.
 Initialization pass.
                           ----------------------------
                           !    Initial Parameters    !
                           ! (Angstroms and Degrees)  !
 --------------------------                            --------------------------
 ! Name  Definition              Value          Derivative Info.                !
 --------------------------------------------------------------------------------
 ! R1    R(1,2)                  1.386          estimate D2E/DX2                !
 ! R2    R(1,3)                  1.4104         estimate D2E/DX2                !
 ! R3    R(1,12)                 1.0887         estimate D2E/DX2                !
 ! R4    R(2,4)                  1.4129         estimate D2E/DX2                !
 ! R5    R(2,9)                  1.0886         estimate D2E/DX2                !
 ! R6    R(3,5)                  1.4104         estimate D2E/DX2                !
 ! R7    R(3,7)                  1.3841         estimate D2E/DX2                !
 ! R8    R(4,6)                  1.4129         estimate D2E/DX2                !
 ! R9    R(4,13)                 1.4322         estimate D2E/DX2                !
 ! R10   R(5,6)                  1.386          estimate D2E/DX2                !
 ! R11   R(5,10)                 1.0887         estimate D2E/DX2                !
 ! R12   R(6,11)                 1.0886         estimate D2E/DX2                !
 ! R13   R(7,8)                  1.1139         estimate D2E/DX2                !
 ! R14   R(13,14)                1.1625         estimate D2E/DX2                !
 ! A1    A(2,1,3)              117.2601         estimate D2E/DX2                !
 ! A2    A(2,1,12)             121.5602         estimate D2E/DX2                !
 ! A3    A(3,1,12)             121.1797         estimate D2E/DX2                !
 ! A4    A(1,2,4)              120.0706         estimate D2E/DX2                !
 ! A5    A(1,2,9)              119.9899         estimate D2E/DX2                !
 ! A6    A(4,2,9)              119.9395         estimate D2E/DX2                !
 ! A7    A(1,3,5)              124.1851         estimate D2E/DX2                !
 ! A8    A(1,3,7)              117.9074         estimate D2E/DX2                !
 ! A9    A(5,3,7)              117.9074         estimate D2E/DX2                !
 ! A10   A(2,4,6)              121.1535         estimate D2E/DX2                !
 ! A11   A(2,4,13)             119.4232         estimate D2E/DX2                !
 ! A12   A(6,4,13)             119.4232         estimate D2E/DX2                !
 ! A13   A(3,5,6)              117.2601         estimate D2E/DX2                !
 ! A14   A(3,5,10)             121.1797         estimate D2E/DX2                !
 ! A15   A(6,5,10)             121.5602         estimate D2E/DX2                !
 ! A16   A(4,6,5)              120.0706         estimate D2E/DX2                !
 ! A17   A(4,6,11)             119.9395         estimate D2E/DX2                !
 ! A18   A(5,6,11)             119.9899         estimate D2E/DX2                !
 ! A19   L(3,7,8,10,-1)        180.0            estimate D2E/DX2                !
 ! A20   L(4,13,14,9,-1)       180.0            estimate D2E/DX2                !
 ! A21   L(3,7,8,10,-2)        180.0            estimate D2E/DX2                !
 ! A22   L(4,13,14,9,-2)       180.0            estimate D2E/DX2                !
 ! D1    D(3,1,2,4)              0.0            estimate D2E/DX2                !
 ! D2    D(3,1,2,9)            180.0            estimate D2E/DX2                !
 ! D3    D(12,1,2,4)           180.0            estimate D2E/DX2                !
 ! D4    D(12,1,2,9)             0.0            estimate D2E/DX2                !
 ! D5    D(2,1,3,5)              0.0            estimate D2E/DX2                !
 ! D6    D(2,1,3,7)            180.0            estimate D2E/DX2                !
 ! D7    D(12,1,3,5)           180.0            estimate D2E/DX2                !
 ! D8    D(12,1,3,7)             0.0            estimate D2E/DX2                !
 ! D9    D(1,2,4,6)              0.0            estimate D2E/DX2                !
 ! D10   D(1,2,4,13)           180.0            estimate D2E/DX2                !
 ! D11   D(9,2,4,6)            180.0            estimate D2E/DX2                !
 ! D12   D(9,2,4,13)             0.0            estimate D2E/DX2                !
 ! D13   D(1,3,5,6)              0.0            estimate D2E/DX2                !
 ! D14   D(1,3,5,10)           180.0            estimate D2E/DX2                !
 ! D15   D(7,3,5,6)            180.0            estimate D2E/DX2                !
 ! D16   D(7,3,5,10)             0.0            estimate D2E/DX2                !
 ! D17   D(2,4,6,5)              0.0            estimate D2E/DX2                !
 ! D18   D(2,4,6,11)           180.0            estimate D2E/DX2                !
 ! D19   D(13,4,6,5)           180.0            estimate D2E/DX2                !
 ! D20   D(13,4,6,11)            0.0            estimate D2E/DX2                !
 ! D21   D(3,5,6,4)              0.0            estimate D2E/DX2                !
 ! D22   D(3,5,6,11)           180.0            estimate D2E/DX2                !
 ! D23   D(10,5,6,4)           180.0            estimate D2E/DX2                !
 ! D24   D(10,5,6,11)            0.0            estimate D2E/DX2                !
 --------------------------------------------------------------------------------
 Trust Radius=3.00D-01 FncErr=1.00D-07 GrdErr=1.00D-06 EigMax=2.50D+02 EigMin=1.00D-04
 Number of steps in this run=    100 maximum allowed number of steps=    100.
 GradGradGradGradGradGradGradGradGradGradGradGradGradGradGradGradGradGrad

 Leave Link  103 at Sun Aug  9 02:05:47 2020, MaxMem=   524288000 cpu:               0.0 elap:               0.0
 (Enter /home/ubuntu/g16/l202.exe)
                          Input orientation:                          
 ---------------------------------------------------------------------
 Center     Atomic      Atomic             Coordinates (Angstroms)
 Number     Number       Type             X           Y           Z
 ---------------------------------------------------------------------
      1          6           0       -1.246340    0.676030    0.000000
      2          6           0       -1.230680   -0.709910    0.000000
      3          6           0        0.000000    1.336140    0.000000
      4          6           0        0.000000   -1.404020    0.000000
      5          6           0        1.246340    0.676030    0.000000
      6          6           0        1.230680   -0.709910    0.000000
      7          7           0        0.000000    2.720240    0.000000
      8          7           0        0.000000    3.834160    0.000000
      9          1           0       -2.167320   -1.264660    0.000000
     10          1           0        2.180420    1.235350    0.000000
     11          1           0        2.167320   -1.264660    0.000000
     12          1           0       -2.180420    1.235350    0.000000
     13          6           0        0.000000   -2.836210    0.000000
     14          7           0        0.000000   -3.998730    0.000000
 ---------------------------------------------------------------------
                    Distance matrix (angstroms):
                    1          2          3          4          5
     1  C    0.000000
     2  C    1.386028   0.000000
     3  C    1.410358   2.387654   0.000000
     4  C    2.424865   1.412927   2.740160   0.000000
     5  C    2.492680   2.838390   1.410358   2.424865   0.000000
     6  C    2.838390   2.461360   2.387654   1.412927   1.386028
     7  N    2.394193   3.644242   1.384100   4.124260   2.394193
     8  N    3.395165   4.707775   2.498020   5.238180   3.395165
     9  H    2.148135   1.088596   3.385474   2.171796   3.926748
    10  H    3.472106   3.926785   2.182748   3.423522   1.088735
    11  H    3.926748   3.442986   3.385474   2.171796   2.148135
    12  H    1.088735   2.164727   2.182748   3.423522   3.472106
    13  C    3.726821   2.456771   4.172350   1.432190   3.726821
    14  N    4.838052   3.511540   5.334870   2.594710   4.838052
                    6          7          8          9         10
     6  C    0.000000
     7  N    3.644242   0.000000
     8  N    4.707775   1.113920   0.000000
     9  H    3.442986   4.536155   5.540329   0.000000
    10  H    2.164727   2.638016   3.392351   5.015266   0.000000
    11  H    1.088596   4.536155   5.540329   4.334640   2.500044
    12  H    3.926785   2.638016   3.392351   2.500044   4.360840
    13  C    2.456771   5.556450   6.670370   2.677134   4.618640
    14  N    3.511540   6.718970   7.832890   3.488899   5.670082
                   11         12         13         14
    11  H    0.000000
    12  H    5.015266   0.000000
    13  C    2.677134   4.618640   0.000000
    14  N    3.488899   5.670082   1.162520   0.000000
 Stoichiometry    C7H4N3(1+)
 Framework group  C2V[C2(NCCCNN),SGV(C4H4)]
 Deg. of freedom    13
 Full point group                 C2V     NOp   4
 Largest Abelian subgroup         C2V     NOp   4
 Largest concise Abelian subgroup C2      NOp   2
                         Standard orientation:                         
 ---------------------------------------------------------------------
 Center     Atomic      Atomic             Coordinates (Angstroms)
 Number     Number       Type             X           Y           Z
 ---------------------------------------------------------------------
      1          6           0        0.000000    1.246340    0.676030
      2          6           0        0.000000    1.230680   -0.709910
      3          6           0       -0.000000    0.000000    1.336140
      4          6           0        0.000000   -0.000000   -1.404020
      5          6           0       -0.000000   -1.246340    0.676030
      6          6           0       -0.000000   -1.230680   -0.709910
      7          7           0       -0.000000    0.000000    2.720240
      8          7           0       -0.000000    0.000000    3.834160
      9          1           0        0.000000    2.167320   -1.264660
     10          1           0        0.000000   -2.180420    1.235350
     11          1           0       -0.000000   -2.167320   -1.264660
     12          1           0        0.000000    2.180420    1.235350
     13          6           0        0.000000   -0.000000   -2.836210
     14          7           0        0.000000   -0.000000   -3.998730
 ---------------------------------------------------------------------
 Rotational constants (GHZ):           5.4528627           0.7175084           0.6340744
 Leave Link  202 at Sun Aug  9 02:05:47 2020, MaxMem=   524288000 cpu:               0.6 elap:               0.1
 (Enter /home/ubuntu/g16/l301.exe)
 Standard basis: Aug-CC-pVDZ (5D, 7F)
 Ernie: Thresh=  0.10000D-02 Tol=  0.10000D-05 Strict=F.
 Ernie:  20 primitive shells out of 278 were deleted.
 There are   128 symmetry adapted cartesian basis functions of A1  symmetry.
 There are    30 symmetry adapted cartesian basis functions of A2  symmetry.
 There are    48 symmetry adapted cartesian basis functions of B1  symmetry.
 There are    80 symmetry adapted cartesian basis functions of B2  symmetry.
 There are   112 symmetry adapted basis functions of A1  symmetry.
 There are    30 symmetry adapted basis functions of A2  symmetry.
 There are    48 symmetry adapted basis functions of B1  symmetry.
 There are    76 symmetry adapted basis functions of B2  symmetry.
   266 basis functions,   474 primitive gaussians,   286 cartesian basis functions
    33 alpha electrons       33 beta electrons
       nuclear repulsion energy       421.9017884063 Hartrees.
 IExCor=  402 DFT=T Ex+Corr=B3LYP ExCW=0 ScaHFX=  0.200000
 ScaDFX=  0.800000  0.720000  1.000000  0.810000 ScalE2=  1.000000  1.000000
 IRadAn=      5 IRanWt=     -1 IRanGd=            0 ICorTp=0 IEmpDi=  4
 NAtoms=   14 NActive=   14 NUniq=   10 SFac= 1.96D+00 NAtFMM=   60 NAOKFM=F Big=F
 Integral buffers will be    131072 words long.
 Raffenetti 2 integral format.
 Two-electron integral symmetry is turned on.
 Leave Link  301 at Sun Aug  9 02:05:47 2020, MaxMem=   524288000 cpu:               0.2 elap:               0.0
 (Enter /home/ubuntu/g16/l302.exe)
 NPDir=0 NMtPBC=     1 NCelOv=     1 NCel=       1 NClECP=     1 NCelD=      1
         NCelK=      1 NCelE2=     1 NClLst=     1 CellRange=     0.0.
 One-electron integrals computed using PRISM.
 One-electron integral symmetry used in STVInt
 NBasis=   266 RedAO= T EigKep=  2.04D-06  NBF=   112    30    48    76
 NBsUse=   266 1.00D-06 EigRej= -1.00D+00 NBFU=   112    30    48    76
 Precomputing XC quadrature grid using
 IXCGrd= 4 IRadAn=           5 IRanWt=          -1 IRanGd=           0 AccXCQ= 0.00D+00.
 Generated NRdTot=       0 NPtTot=           0 NUsed=           0 NTot=          32
 NSgBfM=   285   285   285   285   285 MxSgAt=    14 MxSgA2=    14.
 Leave Link  302 at Sun Aug  9 02:05:47 2020, MaxMem=   524288000 cpu:               2.0 elap:               0.3
 (Enter /home/ubuntu/g16/l303.exe)
 DipDrv:  MaxL=1.
 Leave Link  303 at Sun Aug  9 02:05:47 2020, MaxMem=   524288000 cpu:               0.3 elap:               0.0
 (Enter /home/ubuntu/g16/l401.exe)
 ExpMin= 2.97D-02 ExpMax= 9.05D+03 ExpMxC= 3.09D+02 IAcc=3 IRadAn=         5 AccDes= 0.00D+00
 Harris functional with IExCor=  402 and IRadAn=       5 diagonalized for initial guess.
 HarFok:  IExCor=  402 AccDes= 0.00D+00 IRadAn=         5 IDoV= 1 UseB2=F ITyADJ=14
 ICtDFT=  3500011 ScaDFX=  1.000000  1.000000  1.000000  1.000000
 FoFCou: FMM=F IPFlag=           0 FMFlag=      100000 FMFlg1=           0
         NFxFlg=           0 DoJE=T BraDBF=F KetDBF=T FulRan=T
         wScrn=  0.000000 ICntrl=       500 IOpCl=  0 I1Cent=   200000004 NGrid=           0
         NMat0=    1 NMatS0=      1 NMatT0=    0 NMatD0=    1 NMtDS0=    0 NMtDT0=    0
 Petite list used in FoFCou.
 Harris En= -433.151338889235    
 JPrj=0 DoOrth=F DoCkMO=F.
 Initial guess orbital symmetries:
 Alpha Orbitals:
       Occupied  (A1) (A1) (A1) (B2) (A1) (A1) (B2) (A1) (A1) (A1)
                 (A1) (A1) (A1) (A1) (B2) (A1) (B2) (A1) (A1) (B2)
                 (A1) (B2) (A1) (B1) (B2) (A1) (B1) (A1) (B2) (B1)
                 (B2) (A2) (B1)
       Virtual   (B1) (A2) (B2) (B1) (B2) (A1) (B1) (B2) (A1) (A1)
                 (B2) (A1) (B1) (B1) (A1) (A1) (A2) (B1) (B2) (B2)
                 (A1) (A1) (A1) (B2) (B2) (B1) (A2) (A1) (B2) (B1)
                 (A1) (A1) (B2) (A1) (B1) (A1) (B2) (A1) (B1) (A1)
                 (B1) (A1) (A1) (B2) (B2) (B1) (A1) (B2) (B2) (A1)
                 (B2) (A1) (B2) (A2) (B2) (A1) (B1) (B2) (A1) (A2)
                 (A1) (B2) (A1) (A1) (A2) (A1) (B1) (A1) (A2) (B2)
                 (B2) (B1) (A1) (A1) (A1) (B1) (B2) (A1) (A2) (B1)
                 (A1) (B2) (A1) (A1) (B2) (B1) (B2) (A2) (A1) (A2)
                 (B2) (B2) (A1) (A1) (B1) (B2) (B2) (A1) (A1) (A2)
                 (B1) (A1) (B2) (A1) (B1) (A2) (B2) (B1) (B1) (A1)
                 (A1) (B2) (B1) (A1) (A2) (A2) (B2) (A1) (B1) (B2)
                 (A1) (A1) (A2) (B1) (A1) (A2) (A1) (B1) (B2) (A1)
                 (A1) (B1) (B2) (B2) (A1) (B2) (A2) (A1) (B2) (B1)
                 (A1) (B2) (A2) (B1) (A1) (B1) (A1) (B2) (B1) (B1)
                 (A1) (B2) (B2) (A2) (A2) (B2) (A1) (A1) (B1) (B2)
                 (A2) (B1) (A1) (A1) (B2) (B2) (A1) (B1) (A2) (A1)
                 (B2) (B2) (A1) (B2) (A1) (A1) (B2) (B1) (A1) (A2)
                 (B2) (B1) (A1) (A2) (A1) (B2) (A1) (B1) (B2) (B1)
                 (A1) (B2) (A2) (A1) (B2) (A1) (A2) (A1) (B1) (A2)
                 (A1) (B1) (A1) (A2) (B2) (A1) (B2) (A1) (B2) (A1)
                 (A2) (B2) (A1) (A1) (B1) (B2) (A1) (A1) (B2) (B2)
                 (A1) (B1) (A1) (B2) (A1) (A1) (B2) (A1) (B2) (A1)
                 (A1) (A1) (A1)
 Beta  Orbitals:
       Occupied  (A1) (A1) (A1) (B2) (A1) (A1) (B2) (A1) (A1) (A1)
                 (A1) (A1) (A1) (A1) (B2) (A1) (B2) (A1) (A1) (B2)
                 (A1) (B2) (A1) (B1) (B2) (A1) (B1) (A1) (B2) (B1)
                 (B2) (A2) (B1)
       Virtual   (B1) (A2) (B2) (B1) (B2) (A1) (B1) (B2) (A1) (A1)
                 (B2) (A1) (B1) (B1) (A1) (A1) (A2) (B1) (B2) (B2)
                 (A1) (A1) (A1) (B2) (B2) (B1) (A2) (A1) (B2) (B1)
                 (A1) (A1) (B2) (A1) (B1) (A1) (B2) (A1) (B1) (A1)
                 (B1) (A1) (A1) (B2) (B2) (B1) (A1) (B2) (B2) (A1)
                 (B2) (A1) (B2) (A2) (B2) (A1) (B1) (B2) (A1) (A2)
                 (A1) (B2) (A1) (A1) (A2) (A1) (B1) (A1) (A2) (B2)
                 (B2) (B1) (A1) (A1) (A1) (B1) (B2) (A1) (A2) (B1)
                 (A1) (B2) (A1) (A1) (B2) (B1) (B2) (A2) (A1) (A2)
                 (B2) (B2) (A1) (A1) (B1) (B2) (B2) (A1) (A1) (A2)
                 (B1) (A1) (B2) (A1) (B1) (A2) (B2) (B1) (B1) (A1)
                 (A1) (B2) (B1) (A1) (A2) (A2) (B2) (A1) (B1) (B2)
                 (A1) (A1) (A2) (B1) (A1) (A2) (A1) (B1) (B2) (A1)
                 (A1) (B1) (B2) (B2) (A1) (B2) (A2) (A1) (B2) (B1)
                 (A1) (B2) (A2) (B1) (A1) (B1) (A1) (B2) (B1) (B1)
                 (A1) (B2) (B2) (A2) (A2) (B2) (A1) (A1) (B1) (B2)
                 (A2) (B1) (A1) (A1) (B2) (B2) (A1) (B1) (A2) (A1)
                 (B2) (B2) (A1) (B2) (A1) (A1) (B2) (B1) (A1) (A2)
                 (B2) (B1) (A1) (A2) (A1) (B2) (A1) (B1) (B2) (B1)
                 (A1) (B2) (A2) (A1) (B2) (A1) (A2) (A1) (B1) (A2)
                 (A1) (B1) (A1) (A2) (B2) (A1) (B2) (A1) (B2) (A1)
                 (A2) (B2) (A1) (A1) (B1) (B2) (A1) (A1) (B2) (B2)
                 (A1) (B1) (A1) (B2) (A1) (A1) (B2) (A1) (B2) (A1)
                 (A1) (A1) (A1)
 The electronic state of the initial guess is 1-A1.
 Initial guess <Sx>= 0.0000 <Sy>= 0.0000 <Sz>= 0.0000 <S**2>= 0.0000 S= 0.0000
 Leave Link  401 at Sun Aug  9 02:05:48 2020, MaxMem=   524288000 cpu:               6.6 elap:               0.9
 (Enter /home/ubuntu/g16/l502.exe)
 Integral symmetry usage will be decided dynamically.
 UHF open shell SCF:
 Using DIIS extrapolation, IDIIS=  1040.
 NGot=   524288000 LenX=   524117738 LenY=   524035501
 Requested convergence on RMS density matrix=1.00D-08 within 128 cycles.
 Requested convergence on MAX density matrix=1.00D-06.
 Requested convergence on             energy=1.00D-06.
 No special actions if energy rises.
 Fock matrices will be formed incrementally for  20 cycles.

 Cycle   1  Pass 1  IDiag  1:
 FoFJK:  IHMeth= 1 ICntrl=       0 DoSepK=F KAlg= 0 I1Cent=           0 FoldK=F
 IRaf= 980000000 NMat=       1 IRICut=       1 DoRegI=T DoRafI=F ISym2E= 1 IDoP0=0 IntGTp=1.
 FoFCou: FMM=F IPFlag=           0 FMFlag=      100000 FMFlg1=           0
         NFxFlg=           0 DoJE=F BraDBF=F KetDBF=F FulRan=T
         wScrn=  0.000000 ICntrl=         0 IOpCl=  1 I1Cent=           0 NGrid=           0
         NMat0=    1 NMatS0=      1 NMatT0=    0 NMatD0=    1 NMtDS0=    0 NMtDT0=    0
 Petite list used in FoFCou.
 E= -432.919053192149    
 DIIS: error= 2.43D-02 at cycle   1 NSaved=   1.
 NSaved= 1 IEnMin= 1 EnMin= -432.919053192149     IErMin= 1 ErrMin= 2.43D-02
 ErrMax= 2.43D-02  0.00D+00 EMaxC= 1.00D-01 BMatC= 6.55D-01 BMatP= 6.55D-01
 IDIUse=3 WtCom= 7.57D-01 WtEn= 2.43D-01
 Coeff-Com:  0.100D+01
 Coeff-En:   0.100D+01
 Coeff:      0.100D+01
 Gap=     0.046 Goal=   None    Shift=    0.000
 Gap=     0.046 Goal=   None    Shift=    0.000
 GapD=    0.046 DampG=0.250 DampE=0.500 DampFc=0.2500 IDamp=-1.
 Damping current iteration by 2.50D-01
 RMSDP=7.20D-02 MaxDP=3.15D+00              OVMax= 7.92D-01

 Cycle   2  Pass 1  IDiag  1:
 RMSU=  6.09D-03    CP:  8.98D-01
 E= -432.665013265669     Delta-E=        0.254039926480 Rises=F Damp=T
 DIIS: error= 1.77D-02 at cycle   2 NSaved=   2.
 NSaved= 2 IEnMin= 1 EnMin= -432.919053192149     IErMin= 2 ErrMin= 1.77D-02
 ErrMax= 1.77D-02  0.00D+00 EMaxC= 1.00D-01 BMatC= 2.90D-01 BMatP= 6.55D-01
 IDIUse=3 WtCom= 8.23D-01 WtEn= 1.77D-01
 Coeff-Com:  0.307D+00 0.693D+00
 Coeff-En:   0.787D+00 0.213D+00
 Coeff:      0.392D+00 0.608D+00
 Gap=     0.203 Goal=   None    Shift=    0.000
 Gap=     0.203 Goal=   None    Shift=    0.000
 RMSDP=5.13D-02 MaxDP=2.53D+00 DE= 2.54D-01 OVMax= 7.85D-01

 Cycle   3  Pass 1  IDiag  1:
 RMSU=  9.84D-03    CP:  5.99D-01  2.64D+00
 E= -432.941844103280     Delta-E=       -0.276830837611 Rises=F Damp=F
 DIIS: error= 2.80D-02 at cycle   3 NSaved=   3.
 NSaved= 3 IEnMin= 3 EnMin= -432.941844103280     IErMin= 2 ErrMin= 1.77D-02
 ErrMax= 2.80D-02  0.00D+00 EMaxC= 1.00D-01 BMatC= 5.45D-01 BMatP= 2.90D-01
 IDIUse=2 WtCom= 0.00D+00 WtEn= 1.00D+00
 EnCoef did     2 forward-backward iterations
 Coeff-En:   0.316D+00 0.160D+00 0.524D+00
 Coeff:      0.316D+00 0.160D+00 0.524D+00
 Gap=     0.195 Goal=   None    Shift=    0.000
 Gap=     0.195 Goal=   None    Shift=    0.000
 RMSDP=1.01D-02 MaxDP=7.16D-01 DE=-2.77D-01 OVMax= 5.50D-01

 Cycle   4  Pass 1  IDiag  1:
 RMSU=  7.57D-03    CP:  6.26D-01  2.13D+00  6.22D-01
 E= -432.816043922951     Delta-E=        0.125800180329 Rises=F Damp=F
 DIIS: error= 4.08D-02 at cycle   4 NSaved=   4.
 NSaved= 4 IEnMin= 3 EnMin= -432.941844103280     IErMin= 2 ErrMin= 1.77D-02
 ErrMax= 4.08D-02  0.00D+00 EMaxC= 1.00D-01 BMatC= 9.28D-01 BMatP= 2.90D-01
 IDIUse=2 WtCom= 0.00D+00 WtEn= 1.00D+00
 EnCoef did     2 forward-backward iterations
 Coeff-En:   0.198D+00 0.000D+00 0.451D+00 0.351D+00
 Coeff:      0.198D+00 0.000D+00 0.451D+00 0.351D+00
 Gap=     0.112 Goal=   None    Shift=    0.000
 Gap=     0.112 Goal=   None    Shift=    0.000
 RMSDP=4.76D-03 MaxDP=4.66D-01 DE= 1.26D-01 OVMax= 4.14D-01

 Cycle   5  Pass 1  IDiag  1:
 RMSU=  3.38D-03    CP:  6.26D-01  1.99D+00  7.18D-01  5.91D-01
 E= -433.111328486205     Delta-E=       -0.295284563254 Rises=F Damp=F
 DIIS: error= 4.12D-03 at cycle   5 NSaved=   5.
 NSaved= 5 IEnMin= 5 EnMin= -433.111328486205     IErMin= 5 ErrMin= 4.12D-03
 ErrMax= 4.12D-03  0.00D+00 EMaxC= 1.00D-01 BMatC= 1.42D-02 BMatP= 2.90D-01
 IDIUse=3 WtCom= 9.59D-01 WtEn= 4.12D-02
 Coeff-Com: -0.296D-01 0.541D-01 0.140D+00 0.529D-01 0.782D+00
 Coeff-En:   0.000D+00 0.000D+00 0.000D+00 0.000D+00 0.100D+01
 Coeff:     -0.284D-01 0.519D-01 0.134D+00 0.507D-01 0.791D+00
 Gap=     0.154 Goal=   None    Shift=    0.000
 Gap=     0.154 Goal=   None    Shift=    0.000
 RMSDP=2.27D-03 MaxDP=7.37D-02 DE=-2.95D-01 OVMax= 3.87D-02

 Cycle   6  Pass 1  IDiag  1:
 RMSU=  1.22D-03    CP:  6.21D-01  2.10D+00  7.84D-01  4.88D-01  6.28D-01
 E= -433.111558722810     Delta-E=       -0.000230236605 Rises=F Damp=F
 DIIS: error= 3.36D-03 at cycle   6 NSaved=   6.
 NSaved= 6 IEnMin= 6 EnMin= -433.111558722810     IErMin= 6 ErrMin= 3.36D-03
 ErrMax= 3.36D-03  0.00D+00 EMaxC= 1.00D-01 BMatC= 1.36D-02 BMatP= 1.42D-02
 IDIUse=3 WtCom= 9.66D-01 WtEn= 3.36D-02
 Coeff-Com: -0.618D-01 0.794D-01 0.611D-01-0.160D-01 0.528D+00 0.409D+00
 Coeff-En:   0.000D+00 0.000D+00 0.000D+00 0.000D+00 0.482D+00 0.518D+00
 Coeff:     -0.597D-01 0.767D-01 0.590D-01-0.155D-01 0.527D+00 0.413D+00
 Gap=     0.153 Goal=   None    Shift=    0.000
 Gap=     0.153 Goal=   None    Shift=    0.000
 RMSDP=6.60D-04 MaxDP=2.31D-02 DE=-2.30D-04 OVMax= 1.53D-02

 Cycle   7  Pass 1  IDiag  1:
 RMSU=  3.61D-04    CP:  6.21D-01  2.09D+00  7.71D-01  4.98D-01  7.20D-01
                    CP:  6.52D-01
 E= -433.114123988330     Delta-E=       -0.002565265520 Rises=F Damp=F
 DIIS: error= 2.82D-03 at cycle   7 NSaved=   7.
 NSaved= 7 IEnMin= 7 EnMin= -433.114123988330     IErMin= 7 ErrMin= 2.82D-03
 ErrMax= 2.82D-03  0.00D+00 EMaxC= 1.00D-01 BMatC= 2.88D-03 BMatP= 1.36D-02
 IDIUse=3 WtCom= 9.72D-01 WtEn= 2.82D-02
 Coeff-Com: -0.477D-01 0.550D-01 0.110D-01-0.758D-02 0.252D+00 0.235D+00
 Coeff-Com:  0.503D+00
 Coeff-En:   0.000D+00 0.000D+00 0.000D+00 0.000D+00 0.000D+00 0.711D-02
 Coeff-En:   0.993D+00
 Coeff:     -0.463D-01 0.535D-01 0.107D-01-0.737D-02 0.245D+00 0.228D+00
 Coeff:      0.516D+00
 Gap=     0.152 Goal=   None    Shift=    0.000
 Gap=     0.152 Goal=   None    Shift=    0.000
 RMSDP=2.55D-04 MaxDP=6.94D-03 DE=-2.57D-03 OVMax= 7.04D-03

 Cycle   8  Pass 1  IDiag  1:
 RMSU=  1.76D-04    CP:  6.21D-01  2.10D+00  7.65D-01  5.03D-01  7.24D-01
                    CP:  6.88D-01  5.71D-01
 E= -433.114702756337     Delta-E=       -0.000578768007 Rises=F Damp=F
 DIIS: error= 1.93D-03 at cycle   8 NSaved=   8.
 NSaved= 8 IEnMin= 8 EnMin= -433.114702756337     IErMin= 8 ErrMin= 1.93D-03
 ErrMax= 1.93D-03  0.00D+00 EMaxC= 1.00D-01 BMatC= 1.18D-03 BMatP= 2.88D-03
 IDIUse=3 WtCom= 9.81D-01 WtEn= 1.93D-02
 Coeff-Com: -0.244D-01 0.268D-01-0.181D-01 0.518D-02-0.240D-02-0.770D-02
 Coeff-Com:  0.201D+00 0.819D+00
 Coeff-En:   0.000D+00 0.000D+00 0.000D+00 0.000D+00 0.000D+00 0.000D+00
 Coeff-En:   0.000D+00 0.100D+01
 Coeff:     -0.239D-01 0.263D-01-0.178D-01 0.508D-02-0.235D-02-0.755D-02
 Coeff:      0.197D+00 0.823D+00
 Gap=     0.150 Goal=   None    Shift=    0.000
 Gap=     0.150 Goal=   None    Shift=    0.000
 RMSDP=1.61D-04 MaxDP=5.93D-03 DE=-5.79D-04 OVMax= 8.63D-03

 Cycle   9  Pass 1  IDiag  1:
 RMSU=  9.36D-05    CP:  6.21D-01  2.10D+00  7.62D-01  5.15D-01  7.16D-01
                    CP:  7.25D-01  7.58D-01  9.87D-01
 E= -433.115066417387     Delta-E=       -0.000363661050 Rises=F Damp=F
 DIIS: error= 1.01D-03 at cycle   9 NSaved=   9.
 NSaved= 9 IEnMin= 9 EnMin= -433.115066417387     IErMin= 9 ErrMin= 1.01D-03
 ErrMax= 1.01D-03  0.00D+00 EMaxC= 1.00D-01 BMatC= 3.02D-04 BMatP= 1.18D-03
 IDIUse=3 WtCom= 9.90D-01 WtEn= 1.01D-02
 Coeff-Com: -0.218D-02 0.143D-02-0.111D-01 0.653D-02-0.522D-01-0.712D-01
 Coeff-Com: -0.219D+00 0.221D+00 0.113D+01
 Coeff-En:   0.000D+00 0.000D+00 0.000D+00 0.000D+00 0.000D+00 0.000D+00
 Coeff-En:   0.000D+00 0.000D+00 0.100D+01
 Coeff:     -0.216D-02 0.141D-02-0.109D-01 0.646D-02-0.517D-01-0.704D-01
 Coeff:     -0.217D+00 0.219D+00 0.113D+01
 Gap=     0.148 Goal=   None    Shift=    0.000
 Gap=     0.148 Goal=   None    Shift=    0.000
 RMSDP=1.19D-04 MaxDP=6.92D-03 DE=-3.64D-04 OVMax= 9.66D-03

 Cycle  10  Pass 1  IDiag  1:
 RMSU=  4.99D-05    CP:  6.21D-01  2.11D+00  7.58D-01  5.26D-01  7.12D-01
                    CP:  7.35D-01  7.86D-01  1.30D+00  1.15D+00
 E= -433.115191310309     Delta-E=       -0.000124892922 Rises=F Damp=F
 DIIS: error= 8.86D-05 at cycle  10 NSaved=  10.
 NSaved=10 IEnMin=10 EnMin= -433.115191310309     IErMin=10 ErrMin= 8.86D-05
 ErrMax= 8.86D-05  0.00D+00 EMaxC= 1.00D-01 BMatC= 7.17D-06 BMatP= 3.02D-04
 IDIUse=1 WtCom= 1.00D+00 WtEn= 0.00D+00
 Coeff-Com:  0.131D-02-0.116D-02-0.187D-02 0.171D-02-0.167D-01-0.276D-01
 Coeff-Com: -0.148D+00-0.178D-01 0.595D+00 0.614D+00
 Coeff:      0.131D-02-0.116D-02-0.187D-02 0.171D-02-0.167D-01-0.276D-01
 Coeff:     -0.148D+00-0.178D-01 0.595D+00 0.614D+00
 Gap=     0.148 Goal=   None    Shift=    0.000
 Gap=     0.148 Goal=   None    Shift=    0.000
 RMSDP=3.17D-05 MaxDP=1.73D-03 DE=-1.25D-04 OVMax= 9.38D-04

 Cycle  11  Pass 1  IDiag  1:
 RMSU=  1.47D-05    CP:  6.21D-01  2.11D+00  7.57D-01  5.26D-01  7.13D-01
                    CP:  7.43D-01  7.71D-01  1.35D+00  1.30D+00  7.22D-01
 E= -433.115192577622     Delta-E=       -0.000001267313 Rises=F Damp=F
 DIIS: error= 6.06D-05 at cycle  11 NSaved=  11.
 NSaved=11 IEnMin=11 EnMin= -433.115192577622     IErMin=11 ErrMin= 6.06D-05
 ErrMax= 6.06D-05  0.00D+00 EMaxC= 1.00D-01 BMatC= 1.60D-06 BMatP= 7.17D-06
 IDIUse=1 WtCom= 1.00D+00 WtEn= 0.00D+00
 Coeff-Com:  0.415D-03-0.234D-03 0.591D-03-0.238D-04 0.110D-02-0.166D-02
 Coeff-Com: -0.361D-01-0.174D-01 0.148D+00 0.225D+00 0.680D+00
 Coeff:      0.415D-03-0.234D-03 0.591D-03-0.238D-04 0.110D-02-0.166D-02
 Coeff:     -0.361D-01-0.174D-01 0.148D+00 0.225D+00 0.680D+00
 Gap=     0.148 Goal=   None    Shift=    0.000
 Gap=     0.148 Goal=   None    Shift=    0.000
 RMSDP=1.05D-05 MaxDP=3.59D-04 DE=-1.27D-06 OVMax= 3.10D-04

 Cycle  12  Pass 1  IDiag  1:
 RMSU=  4.58D-06    CP:  6.21D-01  2.11D+00  7.58D-01  5.25D-01  7.14D-01
                    CP:  7.41D-01  7.67D-01  1.32D+00  1.28D+00  7.54D-01
                    CP:  7.04D-01
 E= -433.115193088427     Delta-E=       -0.000000510805 Rises=F Damp=F
 DIIS: error= 2.07D-05 at cycle  12 NSaved=  12.
 NSaved=12 IEnMin=12 EnMin= -433.115193088427     IErMin=12 ErrMin= 2.07D-05
 ErrMax= 2.07D-05  0.00D+00 EMaxC= 1.00D-01 BMatC= 1.81D-07 BMatP= 1.60D-06
 IDIUse=1 WtCom= 1.00D+00 WtEn= 0.00D+00
 Coeff-Com:  0.132D-03-0.826D-04 0.443D-03-0.119D-03 0.172D-02 0.822D-03
 Coeff-Com: -0.101D-01-0.665D-02 0.485D-01 0.694D-01 0.339D+00 0.557D+00
 Coeff:      0.132D-03-0.826D-04 0.443D-03-0.119D-03 0.172D-02 0.822D-03
 Coeff:     -0.101D-01-0.665D-02 0.485D-01 0.694D-01 0.339D+00 0.557D+00
 Gap=     0.148 Goal=   None    Shift=    0.000
 Gap=     0.148 Goal=   None    Shift=    0.000
 RMSDP=2.39D-06 MaxDP=6.94D-05 DE=-5.11D-07 OVMax= 1.09D-04

 Cycle  13  Pass 1  IDiag  1:
 RMSU=  1.17D-06    CP:  6.21D-01  2.10D+00  7.58D-01  5.25D-01  7.14D-01
                    CP:  7.40D-01  7.67D-01  1.32D+00  1.28D+00  7.48D-01
                    CP:  7.43D-01  9.21D-01
 E= -433.115193136114     Delta-E=       -0.000000047687 Rises=F Damp=F
 DIIS: error= 7.96D-06 at cycle  13 NSaved=  13.
 NSaved=13 IEnMin=13 EnMin= -433.115193136114     IErMin=13 ErrMin= 7.96D-06
 ErrMax= 7.96D-06  0.00D+00 EMaxC= 1.00D-01 BMatC= 6.89D-08 BMatP= 1.81D-07
 IDIUse=1 WtCom= 1.00D+00 WtEn= 0.00D+00
 Coeff-Com:  0.418D-04-0.508D-04 0.248D-03-0.106D-03 0.122D-02 0.106D-02
 Coeff-Com: -0.585D-03-0.173D-02 0.978D-02 0.436D-02 0.130D+00 0.431D+00
 Coeff-Com:  0.425D+00
 Coeff:      0.418D-04-0.508D-04 0.248D-03-0.106D-03 0.122D-02 0.106D-02
 Coeff:     -0.585D-03-0.173D-02 0.978D-02 0.436D-02 0.130D+00 0.431D+00
 Coeff:      0.425D+00
 Gap=     0.148 Goal=   None    Shift=    0.000
 Gap=     0.148 Goal=   None    Shift=    0.000
 RMSDP=1.52D-06 MaxDP=1.42D-04 DE=-4.77D-08 OVMax= 4.25D-05

 Cycle  14  Pass 1  IDiag  1:
 RMSU=  8.60D-07    CP:  6.21D-01  2.11D+00  7.58D-01  5.25D-01  7.14D-01
                    CP:  7.40D-01  7.67D-01  1.32D+00  1.28D+00  7.53D-01
                    CP:  7.44D-01  1.02D+00  6.87D-01
 E= -433.115193150612     Delta-E=       -0.000000014498 Rises=F Damp=F
 DIIS: error= 5.12D-06 at cycle  14 NSaved=  14.
 NSaved=14 IEnMin=14 EnMin= -433.115193150612     IErMin=14 ErrMin= 5.12D-06
 ErrMax= 5.12D-06  0.00D+00 EMaxC= 1.00D-01 BMatC= 9.74D-09 BMatP= 6.89D-08
 IDIUse=1 WtCom= 1.00D+00 WtEn= 0.00D+00
 Coeff-Com:  0.226D-04-0.243D-04 0.217D-04-0.285D-04 0.185D-04 0.840D-04
 Coeff-Com:  0.505D-03 0.581D-03 0.141D-02-0.111D-01-0.310D-02 0.722D-01
 Coeff-Com:  0.190D+00 0.749D+00
 Coeff:      0.226D-04-0.243D-04 0.217D-04-0.285D-04 0.185D-04 0.840D-04
 Coeff:      0.505D-03 0.581D-03 0.141D-02-0.111D-01-0.310D-02 0.722D-01
 Coeff:      0.190D+00 0.749D+00
 Gap=     0.148 Goal=   None    Shift=    0.000
 Gap=     0.148 Goal=   None    Shift=    0.000
 RMSDP=7.69D-07 MaxDP=3.74D-05 DE=-1.45D-08 OVMax= 3.12D-05

 Cycle  15  Pass 1  IDiag  1:
 RMSU=  3.51D-07    CP:  6.21D-01  2.11D+00  7.58D-01  5.25D-01  7.14D-01
                    CP:  7.40D-01  7.68D-01  1.32D+00  1.28D+00  7.53D-01
                    CP:  7.38D-01  1.07D+00  7.91D-01  1.16D+00
 E= -433.115193153991     Delta-E=       -0.000000003379 Rises=F Damp=F
 DIIS: error= 1.26D-06 at cycle  15 NSaved=  15.
 NSaved=15 IEnMin=15 EnMin= -433.115193153991     IErMin=15 ErrMin= 1.26D-06
 ErrMax= 1.26D-06  0.00D+00 EMaxC= 1.00D-01 BMatC= 1.01D-09 BMatP= 9.74D-09
 IDIUse=1 WtCom= 1.00D+00 WtEn= 0.00D+00
 Coeff-Com:  0.540D-06-0.600D-06-0.133D-04-0.191D-05-0.774D-04-0.285D-04
 Coeff-Com:  0.367D-03 0.512D-03 0.928D-04-0.612D-02-0.162D-01-0.243D-01
 Coeff-Com:  0.291D-01 0.378D+00 0.639D+00
 Coeff:      0.540D-06-0.600D-06-0.133D-04-0.191D-05-0.774D-04-0.285D-04
 Coeff:      0.367D-03 0.512D-03 0.928D-04-0.612D-02-0.162D-01-0.243D-01
 Coeff:      0.291D-01 0.378D+00 0.639D+00
 Gap=     0.148 Goal=   None    Shift=    0.000
 Gap=     0.148 Goal=   None    Shift=    0.000
 RMSDP=2.35D-07 MaxDP=1.39D-05 DE=-3.38D-09 OVMax= 1.10D-05

 Cycle  16  Pass 1  IDiag  1:
 RMSU=  1.15D-07    CP:  6.21D-01  2.11D+00  7.58D-01  5.25D-01  7.14D-01
                    CP:  7.40D-01  7.68D-01  1.32D+00  1.28D+00  7.51D-01
                    CP:  7.39D-01  1.07D+00  8.11D-01  1.20D+00  8.82D-01
 E= -433.115193154330     Delta-E=       -0.000000000339 Rises=F Damp=F
 DIIS: error= 1.01D-07 at cycle  16 NSaved=  16.
 NSaved=16 IEnMin=16 EnMin= -433.115193154330     IErMin=16 ErrMin= 1.01D-07
 ErrMax= 1.01D-07  0.00D+00 EMaxC= 1.00D-01 BMatC= 1.20D-11 BMatP= 1.01D-09
 IDIUse=1 WtCom= 1.00D+00 WtEn= 0.00D+00
 Coeff-Com: -0.812D-08-0.138D-05-0.481D-05 0.118D-05-0.168D-04-0.338D-05
 Coeff-Com:  0.336D-04 0.303D-04 0.292D-04-0.630D-03-0.237D-02-0.794D-02
 Coeff-Com: -0.111D-01 0.261D-01 0.177D+00 0.819D+00
 Coeff:     -0.812D-08-0.138D-05-0.481D-05 0.118D-05-0.168D-04-0.338D-05
 Coeff:      0.336D-04 0.303D-04 0.292D-04-0.630D-03-0.237D-02-0.794D-02
 Coeff:     -0.111D-01 0.261D-01 0.177D+00 0.819D+00
 Gap=     0.148 Goal=   None    Shift=    0.000
 Gap=     0.148 Goal=   None    Shift=    0.000
 RMSDP=5.19D-08 MaxDP=2.68D-06 DE=-3.39D-10 OVMax= 6.37D-07

 Cycle  17  Pass 1  IDiag  1:
 RMSU=  2.70D-08    CP:  6.21D-01  2.11D+00  7.58D-01  5.25D-01  7.14D-01
                    CP:  7.40D-01  7.68D-01  1.32D+00  1.28D+00  7.51D-01
                    CP:  7.39D-01  1.07D+00  8.13D-01  1.21D+00  9.18D-01
                    CP:  8.91D-01
 E= -433.115193154335     Delta-E=       -0.000000000006 Rises=F Damp=F
 DIIS: error= 4.10D-08 at cycle  17 NSaved=  17.
 NSaved=17 IEnMin=17 EnMin= -433.115193154335     IErMin=17 ErrMin= 4.10D-08
 ErrMax= 4.10D-08  0.00D+00 EMaxC= 1.00D-01 BMatC= 7.62D-13 BMatP= 1.20D-11
 IDIUse=1 WtCom= 1.00D+00 WtEn= 0.00D+00
 Coeff-Com:  0.176D-06 0.611D-07-0.984D-07 0.436D-07-0.224D-06 0.109D-05
 Coeff-Com: -0.125D-04-0.135D-04 0.297D-04 0.155D-03 0.518D-03 0.184D-03
 Coeff-Com: -0.186D-02-0.159D-01-0.579D-02 0.763D-01 0.946D+00
 Coeff:      0.176D-06 0.611D-07-0.984D-07 0.436D-07-0.224D-06 0.109D-05
 Coeff:     -0.125D-04-0.135D-04 0.297D-04 0.155D-03 0.518D-03 0.184D-03
 Coeff:     -0.186D-02-0.159D-01-0.579D-02 0.763D-01 0.946D+00
 Gap=     0.148 Goal=   None    Shift=    0.000
 Gap=     0.148 Goal=   None    Shift=    0.000
 RMSDP=1.12D-08 MaxDP=3.63D-07 DE=-5.57D-12 OVMax= 4.36D-07

 Cycle  18  Pass 1  IDiag  1:
 RMSU=  3.93D-09    CP:  6.21D-01  2.11D+00  7.58D-01  5.25D-01  7.14D-01
                    CP:  7.40D-01  7.68D-01  1.32D+00  1.28D+00  7.51D-01
                    CP:  7.39D-01  1.07D+00  8.14D-01  1.21D+00  9.28D-01
                    CP:  9.15D-01  1.00D+00
 E= -433.115193154321     Delta-E=        0.000000000014 Rises=F Damp=F
 DIIS: error= 3.33D-09 at cycle  18 NSaved=  18.
 NSaved=18 IEnMin=17 EnMin= -433.115193154335     IErMin=18 ErrMin= 3.33D-09
 ErrMax= 3.33D-09  0.00D+00 EMaxC= 1.00D-01 BMatC= 8.41D-15 BMatP= 7.62D-13
 IDIUse=1 WtCom= 1.00D+00 WtEn= 0.00D+00
 Coeff-Com:  0.230D-07-0.175D-07 0.403D-07 0.756D-08 0.286D-06 0.511D-06
 Coeff-Com: -0.147D-05-0.385D-05 0.357D-05 0.247D-04 0.894D-04 0.177D-03
 Coeff-Com:  0.951D-04-0.199D-02-0.367D-02-0.108D-01 0.918D-01 0.924D+00
 Coeff:      0.230D-07-0.175D-07 0.403D-07 0.756D-08 0.286D-06 0.511D-06
 Coeff:     -0.147D-05-0.385D-05 0.357D-05 0.247D-04 0.894D-04 0.177D-03
 Coeff:      0.951D-04-0.199D-02-0.367D-02-0.108D-01 0.918D-01 0.924D+00
 Gap=     0.148 Goal=   None    Shift=    0.000
 Gap=     0.148 Goal=   None    Shift=    0.000
 RMSDP=1.04D-09 MaxDP=4.96D-08 DE= 1.42D-11 OVMax= 3.78D-08

 SCF Done:  E(UB3LYP) =  -433.115193154     A.U. after   18 cycles
            NFock= 18  Conv=0.10D-08     -V/T= 2.0064
 <Sx>= 0.0000 <Sy>= 0.0000 <Sz>= 0.0000 <S**2>=-0.0000 S=-0.0000
 <L.S>= 0.000000000000E+00
 KE= 4.303579626022D+02 PE=-1.836742831043D+03 EE= 5.513678868803D+02
 Annihilation of the first spin contaminant:
 S**2 before annihilation    -0.0000,   after     0.0000
 Leave Link  502 at Sun Aug  9 02:07:11 2020, MaxMem=   524288000 cpu:             577.3 elap:              82.5
 (Enter /home/ubuntu/g16/l601.exe)
 Copying SCF densities to generalized density rwf, IOpCl= 1 IROHF=0.

 **********************************************************************

            Population analysis using the SCF density.

 **********************************************************************

 Orbital symmetries:
 Alpha Orbitals:
       Occupied  (A1) (A1) (A1) (A1) (A1) (B2) (A1) (B2) (A1) (A1)
                 (A1) (A1) (A1) (A1) (B2) (A1) (B2) (A1) (A1) (B1)
                 (B2) (A1) (B2) (A1) (B2) (A1) (B1) (B2) (B1) (A1)
                 (B2) (A2) (B1)
       Virtual   (B1) (B2) (A2) (B1) (A1) (B2) (B2) (A1) (A1) (B1)
                 (B1) (A1) (B2) (B1) (A1) (A2) (A1) (A1) (B2) (B2)
                 (B1) (B2) (A1) (A1) (B1) (A1) (A2) (B1) (B2) (B2)
                 (A1) (A1) (B2) (B1) (A1) (A1) (B2) (B1) (A1) (B1)
                 (A1) (B2) (A1) (A1) (B2) (A1) (B2) (A1) (B1) (B2)
                 (B2) (A2) (A1) (A1) (B1) (B2) (B2) (A1) (A2) (B2)
                 (A1) (A1) (B2) (A2) (A1) (A2) (B1) (A1) (A1) (A1)
                 (B2) (B1) (B2) (A1) (A2) (B1) (A1) (A1) (B2) (B1)
                 (A1) (A1) (B2) (B1) (A1) (B2) (A2) (A2) (A1) (B2)
                 (B2) (A1) (B2) (B1) (A1) (B2) (B2) (A1) (A1) (B1)
                 (A2) (B1) (B2) (B2) (A1) (B1) (A2) (B2) (A1) (A1)
                 (B1) (A2) (B1) (A1) (A1) (A2) (A1) (B2) (A1) (B1)
                 (A2) (A1) (B1) (B2) (A2) (A1) (B1) (B2) (A1) (A1)
                 (B2) (B1) (A1) (B2) (B2) (A2) (B1) (A1) (B2) (A1)
                 (A1) (A2) (B1) (B2) (B1) (A1) (A1) (B2) (B1) (A1)
                 (B2) (B1) (B2) (A2) (A2) (A1) (A1) (B2) (B1) (B2)
                 (B1) (A2) (A1) (A1) (B2) (B2) (A1) (B2) (A1) (B1)
                 (A2) (B2) (A1) (A1) (B2) (A1) (B2) (B1) (A1) (A2)
                 (B2) (B1) (A1) (A2) (A1) (B1) (B2) (A1) (A1) (A2)
                 (B2) (B2) (B1) (A1) (A2) (B1) (A1) (B2) (A1) (A1)
                 (A2) (B2) (B1) (A1) (A1) (A2) (B2) (A1) (A2) (B2)
                 (A1) (B2) (A1) (A1) (A1) (B2) (A1) (B1) (B2) (B1)
                 (A1) (B2) (A1) (B2) (A1) (A1) (B2) (A1) (B2) (A1)
                 (A1) (A1) (A1)
 Beta  Orbitals:
       Occupied  (A1) (A1) (A1) (A1) (A1) (B2) (A1) (B2) (A1) (A1)
                 (A1) (A1) (A1) (A1) (B2) (A1) (B2) (A1) (A1) (B1)
                 (B2) (A1) (B2) (A1) (B2) (A1) (B1) (B2) (B1) (A1)
                 (B2) (A2) (B1)
       Virtual   (B1) (B2) (A2) (B1) (A1) (B2) (B2) (A1) (A1) (B1)
                 (B1) (A1) (B2) (B1) (A1) (A2) (A1) (A1) (B2) (B2)
                 (B1) (B2) (A1) (A1) (B1) (A1) (A2) (B1) (B2) (B2)
                 (A1) (A1) (B2) (B1) (A1) (A1) (B2) (B1) (A1) (B1)
                 (A1) (B2) (A1) (A1) (B2) (A1) (B2) (A1) (B1) (B2)
                 (B2) (A2) (A1) (A1) (B1) (B2) (B2) (A1) (A2) (B2)
                 (A1) (A1) (B2) (A2) (A1) (A2) (B1) (A1) (A1) (A1)
                 (B2) (B1) (B2) (A1) (A2) (B1) (A1) (A1) (B2) (B1)
                 (A1) (A1) (B2) (B1) (A1) (B2) (A2) (A2) (A1) (B2)
                 (B2) (A1) (B2) (B1) (A1) (B2) (B2) (A1) (A1) (B1)
                 (A2) (B1) (B2) (B2) (A1) (B1) (A2) (B2) (A1) (A1)
                 (B1) (A2) (B1) (A1) (A1) (A2) (A1) (B2) (A1) (B1)
                 (A2) (A1) (B1) (B2) (A2) (A1) (B1) (B2) (A1) (A1)
                 (B2) (B1) (A1) (B2) (B2) (A2) (B1) (A1) (B2) (A1)
                 (A1) (A2) (B1) (B2) (B1) (A1) (A1) (B2) (B1) (A1)
                 (B2) (B1) (B2) (A2) (A2) (A1) (A1) (B2) (B1) (B2)
                 (B1) (A2) (A1) (A1) (B2) (B2) (A1) (B2) (A1) (B1)
                 (A2) (B2) (A1) (A1) (B2) (A1) (B2) (B1) (A1) (A2)
                 (B2) (B1) (A1) (A2) (A1) (B1) (B2) (A1) (A1) (A2)
                 (B2) (B2) (B1) (A1) (A2) (B1) (A1) (B2) (A1) (A1)
                 (A2) (B2) (B1) (A1) (A1) (A2) (B2) (A1) (A2) (B2)
                 (A1) (B2) (A1) (A1) (A1) (B2) (A1) (B1) (B2) (B1)
                 (A1) (B2) (A1) (B2) (A1) (A1) (B2) (A1) (B2) (A1)
                 (A1) (A1) (A1)
 The electronic state is 1-A1.
     Natural Orbital Coefficients:
                           1         2         3         4         5
     Eigenvalues --     2.00000   2.00000   2.00000   2.00000   2.00000
   1 1   C  1S          0.01979  -0.13096  -0.07913  -0.10049  -0.00461
   2        2S          0.13172   0.04226   0.02381  -0.03720  -0.10783
   3        3S          0.07682   0.18813  -0.01358  -0.16688  -0.10191
   4        4S          0.37469   0.31295   0.01271  -0.26790  -0.16363
   5        5PX         0.00000   0.00000   0.00000  -0.00000   0.00000
   6        5PY        -0.08994  -0.09578   0.01120   0.10598   0.09173
   7        5PZ        -0.01066  -0.01219   0.02342  -0.00568   0.06717
   8        6PX         0.00000   0.00000   0.00000  -0.00000   0.00000
   9        6PY         0.02444   0.07384  -0.04394  -0.04214   0.16315
  10        6PZ        -0.13088  -0.15452   0.07721   0.08532  -0.28742
  11        7PX         0.00000   0.00000   0.00000  -0.00000   0.00000
  12        7PY        -0.01728  -0.08847  -0.01944   0.07206   0.08638
  13        7PZ        -0.06637  -0.00205   0.02366  -0.00986  -0.12930
  14        8D 0        0.00418  -0.00357   0.00051   0.00512  -0.00547
  15        8D+1        0.00000   0.00000   0.00000  -0.00000   0.00000
  16        8D-1       -0.00899  -0.00674  -0.00273   0.00604   0.01613
  17        8D+2       -0.00677  -0.00475   0.00029   0.00509   0.00102
  18        8D-2       -0.00000  -0.00000  -0.00000   0.00000  -0.00000
  19        9D 0        0.02311   0.04675  -0.00703  -0.03681   0.06869
  20        9D+1        0.00000   0.00000   0.00000  -0.00000   0.00000
  21        9D-1        0.06465   0.04456  -0.00811  -0.01807   0.02260
  22        9D+2        0.01424   0.03096  -0.00217  -0.01785   0.03207
  23        9D-2        0.00000   0.00000   0.00000  -0.00000   0.00000
  24 2   C  1S         -0.12005  -0.19191   0.10501  -0.14495   0.08867
  25        2S          0.15036  -0.06450  -0.01139   0.03591  -0.03076
  26        3S          0.09567  -0.00920  -0.04990   0.07231   0.14913
  27        4S         -0.33553  -0.16799  -0.01738   0.18247   0.32749
  28        5PX        -0.00000  -0.00000   0.00000   0.00000  -0.00000
  29        5PY         0.00696   0.04102   0.02865  -0.06395  -0.19797
  30        5PZ        -0.00767   0.07646   0.00630  -0.03386  -0.12261
  31        6PX         0.00000  -0.00000   0.00000   0.00000  -0.00000
  32        6PY        -0.08116  -0.10040   0.02044   0.03081  -0.21885
  33        6PZ        -0.17099  -0.25020   0.08605   0.15116  -0.30070
  34        7PX        -0.00000  -0.00000  -0.00000   0.00000  -0.00000
  35        7PY        -0.00497   0.04775   0.00868  -0.05083  -0.10961
  36        7PZ        -0.06402   0.02166   0.03044  -0.01176  -0.13977
  37        8D 0        0.00306   0.00205  -0.00015  -0.00333  -0.00450
  38        8D+1        0.00000   0.00000   0.00000  -0.00000   0.00000
  39        8D-1       -0.00348  -0.01266  -0.00194   0.01064   0.01595
  40        8D+2       -0.00483   0.00448  -0.00106  -0.00397   0.00055
  41        8D-2        0.00000   0.00000   0.00000  -0.00000   0.00000
  42        9D 0        0.00357  -0.04068   0.03778   0.04549  -0.09228
  43        9D+1        0.00000   0.00000   0.00000  -0.00000   0.00000
  44        9D-1        0.10163   0.06343   0.00473  -0.02587  -0.02728
  45        9D+2       -0.00008  -0.03254   0.00744   0.01631  -0.04417
  46        9D-2       -0.00000  -0.00000   0.00000   0.00000  -0.00000
  47 3   C  1S         -0.15134  -0.34028   0.61571  -0.54074   0.07666
  48        2S          0.24710   0.09157   0.05572  -0.10621   0.02186
  49        3S          0.44248   0.34934  -0.01709  -0.15995   0.02883
  50        4S         -0.42989  -0.59511   0.14671   0.64250  -0.00979
  51        5PX         0.00000   0.00000   0.00000  -0.00000   0.00000
  52        5PY        -0.00140  -0.00085   0.02649  -0.01118  -0.19788
  53        5PZ        -0.01030  -0.11267   0.05182   0.14789   0.00361
  54        6PX         0.00000   0.00000   0.00000  -0.00000   0.00000
  55        6PY         0.00525   0.00401  -0.03760   0.00893   0.27875
  56        6PZ        -0.09649  -0.16456   0.05892   0.19759  -0.00288
  57        7PX         0.00000   0.00000   0.00000  -0.00000   0.00000
  58        7PY        -0.00901  -0.01616  -0.03325   0.02387   0.18847
  59        7PZ         0.13757   0.05828  -0.02681  -0.08719  -0.00235
  60        8D 0        0.01260  -0.00339   0.00354   0.00924   0.00021
  61        8D+1        0.00000   0.00000   0.00000  -0.00000   0.00000
  62        8D-1       -0.00036   0.00024   0.00035   0.00024  -0.00287
  63        8D+2       -0.00822  -0.00356  -0.00303   0.00317  -0.00118
  64        8D-2        0.00000   0.00000  -0.00000  -0.00000  -0.00000
  65        9D 0       -0.07276  -0.02056   0.02337   0.02954  -0.00504
  66        9D+1       -0.00000  -0.00000  -0.00000   0.00000  -0.00000
  67        9D-1        0.00140  -0.00095   0.00762  -0.00359  -0.05428
  68        9D+2       -0.04491  -0.00757   0.01029  -0.00884  -0.00226
  69        9D-2        0.00000   0.00000  -0.00000  -0.00000  -0.00000
  70 4   C  1S          0.01995   0.25867   0.10835   0.03295  -0.04264
  71        2S          0.11502  -0.19677   0.01534   0.16111  -0.02295
  72        3S         -0.24341  -0.50956   0.10911   0.38278  -0.02260
  73        4S         -0.00788   0.38606   0.29876   0.04064   0.06546
  74        5PX        -0.00000  -0.00000  -0.00000   0.00000  -0.00000
  75        5PY         0.00051  -0.01893  -0.04176   0.01539   0.26753
  76        5PZ         0.02788   0.06875  -0.00592  -0.00156  -0.00086
  77        6PX        -0.00000  -0.00000  -0.00000   0.00000  -0.00000
  78        6PY         0.00167   0.01730   0.03093  -0.00818  -0.19884
  79        6PZ        -0.12548  -0.30340  -0.04822   0.07772  -0.00984
  80        7PX        -0.00000  -0.00000  -0.00000   0.00000  -0.00000
  81        7PY         0.00137   0.01974   0.05106  -0.02853  -0.32650
  82        7PZ         0.22234  -0.08828  -0.20197  -0.18635  -0.01525
  83        8D 0       -0.00315  -0.00503  -0.00403   0.00051  -0.00098
  84        8D+1       -0.00000  -0.00000   0.00000   0.00000  -0.00000
  85        8D-1        0.00028  -0.00146  -0.00177   0.00086   0.01183
  86        8D+2       -0.01030   0.00533   0.00032  -0.00379   0.00059
  87        8D-2        0.00000   0.00000  -0.00000  -0.00000  -0.00000
  88        9D 0        0.14380   0.15011  -0.01471  -0.06256   0.00143
  89        9D+1       -0.00000  -0.00000  -0.00000   0.00000  -0.00000
  90        9D-1        0.00119   0.01705   0.03650  -0.01159  -0.22887
  91        9D+2        0.06814   0.08791   0.00063  -0.02645   0.00087
  92        9D-2        0.00000   0.00000  -0.00000  -0.00000  -0.00000
  93 5   C  1S          0.03720  -0.16425  -0.04185  -0.10942  -0.15146
  94        2S          0.13994   0.04632  -0.00467  -0.02981   0.11606
  95        3S          0.07627   0.21887  -0.04383  -0.15750   0.13053
  96        4S          0.35640   0.27003  -0.05624  -0.21858   0.20565
  97        5PX         0.00000   0.00000   0.00000  -0.00000   0.00000
  98        5PY         0.08414   0.09377  -0.03882  -0.08997   0.09316
  99        5PZ        -0.00950  -0.00628   0.04385  -0.01320  -0.04643
 100        6PX         0.00000   0.00000   0.00000  -0.00000   0.00000
 101        6PY        -0.02171  -0.07127  -0.00158   0.05613   0.16639
 102        6PZ        -0.12624  -0.17241  -0.00029   0.11370   0.25509
 103        7PX         0.00000   0.00000   0.00000  -0.00000   0.00000
 104        7PY         0.01321   0.07793  -0.01065  -0.05302   0.09834
 105        7PZ        -0.07421  -0.01553  -0.01765   0.01608   0.12568
 106        8D 0        0.00436  -0.00348  -0.00089   0.00566   0.00426
 107        8D+1        0.00000   0.00000   0.00000  -0.00000   0.00000
 108        8D-1        0.00904   0.00506  -0.00233  -0.00373   0.01799
 109        8D+2       -0.00701  -0.00496   0.00055   0.00515  -0.00187
 110        8D-2        0.00000   0.00000   0.00000  -0.00000   0.00000
 111        9D 0        0.02447   0.05105   0.01210  -0.04499  -0.05793
 112        9D+1        0.00000   0.00000   0.00000  -0.00000   0.00000
 113        9D-1       -0.05944  -0.03902   0.00519   0.01507   0.01633
 114        9D+2        0.01521   0.03289   0.00720  -0.02175  -0.02791
 115        9D-2       -0.00000  -0.00000  -0.00000   0.00000  -0.00000
 116 6   C  1S         -0.12509  -0.20514   0.10131  -0.13765   0.06597
 117        2S          0.15443  -0.05851  -0.01792   0.03905   0.02141
 118        3S          0.10042   0.04142   0.01076   0.05406  -0.20491
 119        4S         -0.33958  -0.11604   0.09415   0.12239  -0.38182
 120        5PX        -0.00000  -0.00000   0.00000   0.00000  -0.00000
 121        5PY        -0.01293  -0.01122   0.03432   0.03881  -0.21813
 122        5PZ        -0.00689   0.06936  -0.03182  -0.02239   0.12159
 123        6PX        -0.00000  -0.00000   0.00000   0.00000  -0.00000
 124        6PY         0.08619   0.13788   0.04928  -0.05312  -0.21225
 125        6PZ        -0.16778  -0.28206   0.00093   0.18288   0.27353
 126        7PX        -0.00000  -0.00000  -0.00000   0.00000  -0.00000
 127        7PY         0.00803  -0.03554   0.02808   0.02973  -0.12109
 128        7PZ        -0.06723   0.00906  -0.01240   0.01413   0.13770
 129        8D 0        0.00333   0.00254  -0.00147  -0.00304   0.00510
 130        8D+1        0.00000   0.00000   0.00000  -0.00000   0.00000
 131        8D-1        0.00341   0.01079  -0.00320  -0.00836   0.01781
 132        8D+2       -0.00497   0.00463  -0.00105  -0.00410   0.00011
 133        8D-2       -0.00000  -0.00000  -0.00000   0.00000  -0.00000
 134        9D 0        0.00460  -0.05406   0.01039   0.05554   0.08875
 135        9D+1        0.00000   0.00000   0.00000  -0.00000   0.00000
 136        9D-1       -0.10239  -0.05909   0.00533   0.01973  -0.03575
 137        9D+2        0.00026  -0.03909  -0.00565   0.02106   0.04123
 138        9D-2        0.00000   0.00000  -0.00000  -0.00000   0.00000
 139 7   N  1S         -0.07763   0.00212  -0.01081   0.00375  -0.00718
 140        2S          0.15501   0.04423   0.02053  -0.02026   0.00853
 141        3S          0.23822  -0.03181   0.08029   0.09898   0.01237
 142        4S          0.07709   0.05670  -0.00303   0.00685   0.00198
 143        5PX         0.00000   0.00000   0.00000  -0.00000   0.00000
 144        5PY        -0.00764   0.00270   0.03851  -0.00811  -0.27503
 145        5PZ        -0.08354   0.11061  -0.08613  -0.17968  -0.01051
 146        6PX         0.00000   0.00000   0.00000  -0.00000   0.00000
 147        6PY        -0.00459   0.00211   0.02189  -0.00446  -0.15508
 148        6PZ        -0.01855  -0.06885   0.06083   0.12412  -0.00119
 149        7PX         0.00000   0.00000   0.00000  -0.00000   0.00000
 150        7PY         0.00057   0.00072  -0.00068   0.00000   0.00821
 151        7PZ        -0.06931  -0.11346   0.06806   0.16103   0.00602
 152        8D 0        0.01033   0.00781  -0.00327  -0.00640   0.00065
 153        8D+1       -0.00000  -0.00000  -0.00000   0.00000  -0.00000
 154        8D-1       -0.00037   0.00011   0.00096   0.00006  -0.00660
 155        8D+2       -0.00064  -0.00008  -0.00013   0.00008  -0.00008
 156        8D-2        0.00000   0.00000  -0.00000  -0.00000  -0.00000
 157        9D 0        0.00591  -0.00822   0.00924   0.02329   0.00026
 158        9D+1       -0.00000  -0.00000  -0.00000   0.00000  -0.00000
 159        9D-1        0.00046   0.00038  -0.00253   0.00083   0.02005
 160        9D+2        0.00300   0.00016  -0.00102   0.00028   0.00021
 161        9D-2        0.00000   0.00000  -0.00000  -0.00000  -0.00000
 162 8   N  1S          0.05547   0.05536   0.09627   0.04325   0.00566
 163        2S         -0.01397   0.09490  -0.09475  -0.10004   0.00082
 164        3S         -0.07981   0.15770  -0.18654  -0.24427  -0.00116
 165        4S          0.00993   0.11487  -0.09019  -0.20194  -0.00602
 166        5PX         0.00000  -0.00000  -0.00000   0.00000  -0.00000
 167        5PY        -0.00616   0.00199   0.02723  -0.00445  -0.19240
 168        5PZ        -0.05000  -0.07567   0.00303   0.11536   0.00276
 169        6PX         0.00000  -0.00000  -0.00000   0.00000  -0.00000
 170        6PY        -0.00308   0.00026   0.01263  -0.00196  -0.09126
 171        6PZ         0.01086  -0.07082   0.04567   0.12903   0.00264
 172        7PX        -0.00000  -0.00000  -0.00000   0.00000  -0.00000
 173        7PY        -0.00007   0.00019   0.00091  -0.00043  -0.00633
 174        7PZ         0.00425  -0.00880   0.00736   0.02258   0.00025
 175        8D 0        0.00531   0.00716  -0.00104  -0.00988  -0.00009
 176        8D+1       -0.00000  -0.00000   0.00000   0.00000  -0.00000
 177        8D-1        0.00061  -0.00021  -0.00302   0.00061   0.02151
 178        8D+2        0.00004  -0.00007   0.00008   0.00011  -0.00002
 179        8D-2        0.00000   0.00000  -0.00000  -0.00000  -0.00000
 180        9D 0       -0.00514   0.01035  -0.01012  -0.01752  -0.00035
 181        9D+1       -0.00000  -0.00000  -0.00000   0.00000  -0.00000
 182        9D-1        0.00027   0.00017  -0.00099   0.00020   0.00788
 183        9D+2       -0.00067  -0.00011   0.00046  -0.00013  -0.00000
 184        9D-2        0.00000   0.00000  -0.00000  -0.00000  -0.00000
 185 9   H  1S          0.09745  -0.02237   0.01024  -0.01792  -0.12718
 186        2S          0.16038   0.03551   0.08185  -0.00764  -0.23314
 187        3S          0.00648  -0.00362   0.00780   0.00561   0.00236
 188        4PX        -0.00000  -0.00000   0.00000   0.00000  -0.00000
 189        4PY        -0.00693   0.00453   0.00146  -0.00145   0.00207
 190        4PZ         0.00443   0.00025   0.00057  -0.00028  -0.00648
 191        5PX         0.00000   0.00000  -0.00000   0.00000  -0.00000
 192        5PY        -0.02822  -0.01418  -0.02075   0.00251   0.04665
 193        5PZ         0.01067  -0.00510   0.01567   0.00905  -0.02962
 194 10  H  1S          0.01193  -0.03405   0.04680   0.03988  -0.04811
 195        2S         -0.08603  -0.07636   0.06422   0.04273  -0.15688
 196        3S          0.00468   0.01957   0.00524  -0.00994  -0.00639
 197        4PX         0.00000   0.00000   0.00000  -0.00000   0.00000
 198        4PY         0.00497   0.00069   0.00197   0.00100   0.00321
 199        4PZ        -0.00206   0.00128  -0.00125  -0.00267  -0.00071
 200        5PX        -0.00000  -0.00000  -0.00000   0.00000  -0.00000
 201        5PY        -0.02308  -0.02681   0.01170   0.01534  -0.03382
 202        5PZ         0.00192  -0.00070  -0.00943   0.00422   0.02628
 203 11  H  1S          0.10342  -0.03902  -0.02786  -0.00059   0.13359
 204        2S          0.16875   0.00495   0.01002   0.02820   0.25657
 205        3S          0.00674  -0.00310   0.00918   0.00480  -0.00389
 206        4PX        -0.00000  -0.00000   0.00000   0.00000  -0.00000
 207        4PY         0.00723  -0.00459  -0.00187   0.00168   0.00138
 208        4PZ         0.00469  -0.00027  -0.00136   0.00045   0.00654
 209        5PX        -0.00000  -0.00000  -0.00000   0.00000  -0.00000
 210        5PY         0.02985   0.00846   0.00610   0.00486   0.05338
 211        5PZ         0.01155  -0.00941   0.00676   0.01329   0.03153
 212 12  H  1S          0.00374  -0.04371   0.02658   0.05370   0.06227
 213        2S         -0.09846  -0.10306   0.00875   0.07660   0.16858
 214        3S          0.00515   0.01989   0.00321  -0.00991   0.01065
 215        4PX         0.00000   0.00000   0.00000  -0.00000   0.00000
 216        4PY        -0.00452  -0.00035  -0.00245  -0.00106   0.00163
 217        4PZ        -0.00179   0.00143  -0.00136  -0.00281   0.00039
 218        5PX        -0.00000  -0.00000  -0.00000   0.00000  -0.00000
 219        5PY         0.02539   0.03211  -0.00025  -0.02233  -0.03479
 220        5PZ         0.00276   0.00222  -0.00049  -0.00023  -0.02988
 221 13  C  1S         -0.04471   0.06930   0.31355   0.10272   0.03644
 222        2S          0.01599  -0.15812  -0.17447  -0.09908  -0.02156
 223        3S         -0.20454  -0.42545  -0.20174  -0.03393  -0.02147
 224        4S          0.33078  -0.25594  -0.60363  -0.48072  -0.05324
 225        5PX         0.00000  -0.00000   0.00000  -0.00000   0.00000
 226        5PY        -0.00457   0.00569   0.00603  -0.00440  -0.04882
 227        5PZ         0.02508  -0.05381   0.18498   0.20474   0.00803
 228        6PX         0.00000  -0.00000   0.00000  -0.00000   0.00000
 229        6PY        -0.00131   0.00919   0.01813  -0.00682  -0.11679
 230        6PZ        -0.09847  -0.19434  -0.05828   0.00473  -0.01252
 231        7PX         0.00000   0.00000   0.00000  -0.00000   0.00000
 232        7PY         0.00014  -0.00241  -0.00564   0.00232   0.03586
 233        7PZ         0.02851  -0.04309  -0.05834  -0.03438  -0.00739
 234        8D 0        0.00541  -0.02486  -0.01416  -0.00221  -0.00313
 235        8D+1       -0.00000  -0.00000  -0.00000   0.00000  -0.00000
 236        8D-1        0.00032  -0.00133  -0.00246   0.00108   0.01642
 237        8D+2       -0.00086  -0.00016  -0.00009   0.00010  -0.00004
 238        8D-2        0.00000   0.00000  -0.00000  -0.00000  -0.00000
 239        9D 0        0.00957  -0.02134  -0.00733   0.00187  -0.00045
 240        9D+1       -0.00000  -0.00000  -0.00000   0.00000  -0.00000
 241        9D-1        0.00043   0.00189   0.00507  -0.00144  -0.03045
 242        9D+2       -0.00115  -0.00863   0.00557   0.00815   0.00058
 243        9D-2        0.00000   0.00000  -0.00000  -0.00000  -0.00000
 244 14  N  1S         -0.03386   0.06174   0.11765   0.15251   0.01419
 245        2S          0.02329  -0.18902  -0.20549  -0.11448  -0.03934
 246        3S          0.01059  -0.20251  -0.12999  -0.04730  -0.04056
 247        4S         -0.07376   0.00529   0.21088   0.19598   0.00848
 248        5PX         0.00000   0.00000   0.00000  -0.00000   0.00000
 249        5PY        -0.00479   0.00880   0.01340  -0.00720  -0.09633
 250        5PZ        -0.01958   0.02482  -0.19279  -0.19205  -0.00267
 251        6PX         0.00000   0.00000   0.00000  -0.00000   0.00000
 252        6PY        -0.00256   0.00475   0.00765  -0.00400  -0.05458
 253        6PZ        -0.00280   0.03866  -0.02357  -0.03733   0.00418
 254        7PX         0.00000   0.00000  -0.00000  -0.00000   0.00000
 255        7PY        -0.00031   0.00090   0.00192  -0.00069  -0.01284
 256        7PZ        -0.02213   0.01407   0.05577   0.04550   0.00430
 257        8D 0       -0.00083  -0.00284  -0.01759  -0.01532  -0.00105
 258        8D+1        0.00000   0.00000   0.00000  -0.00000   0.00000
 259        8D-1       -0.00033   0.00045   0.00059  -0.00037  -0.00449
 260        8D+2        0.00000  -0.00025   0.00013   0.00023   0.00000
 261        8D-2        0.00000   0.00000  -0.00000  -0.00000  -0.00000
 262        9D 0        0.00604   0.00871   0.01957   0.01676   0.00163
 263        9D+1        0.00000  -0.00000  -0.00000   0.00000  -0.00000
 264        9D-1       -0.00016  -0.00000  -0.00012  -0.00003   0.00031
 265        9D+2        0.00001   0.00198  -0.00168  -0.00227  -0.00018
 266        9D-2        0.00000   0.00000  -0.00000  -0.00000  -0.00000
                           6         7         8         9        10
     Eigenvalues --     2.00000   2.00000   2.00000   2.00000   2.00000
   1 1   C  1S          0.38554  -0.09894   0.06632   0.00000  -0.32359
   2        2S         -0.01820  -0.02298   0.03035  -0.00000   0.00444
   3        3S         -0.05310  -0.08838  -0.16258  -0.00000   0.04525
   4        4S         -0.08160  -0.13195  -0.23785  -0.00000   0.10228
   5        5PX        -0.00000  -0.00000   0.00000   0.32540   0.00000
   6        5PY         0.04117   0.07008   0.14659   0.00000   0.00899
   7        5PZ        -0.03033   0.01050  -0.00728   0.00000  -0.00544
   8        6PX        -0.00000  -0.00000   0.00000   0.18358   0.00000
   9        6PY         0.01501  -0.01302  -0.01189   0.00000   0.01190
  10        6PZ         0.09418   0.02329   0.05155  -0.00000  -0.13923
  11        7PX        -0.00000  -0.00000   0.00000   0.01610   0.00000
  12        7PY         0.02140   0.05048   0.09537   0.00000   0.00739
  13        7PZ        -0.01202  -0.02349  -0.10166  -0.00000  -0.04701
  14        8D 0        0.00249   0.00411  -0.00016  -0.00000  -0.00167
  15        8D+1       -0.00000  -0.00000   0.00000  -0.01497   0.00000
  16        8D-1        0.00586   0.00285  -0.00208  -0.00000  -0.00167
  17        8D+2        0.00253   0.00229   0.00109  -0.00000  -0.00067
  18        8D-2        0.00000   0.00000  -0.00000  -0.00195  -0.00000
  19        9D 0       -0.01424  -0.00983  -0.00396   0.00000   0.01511
  20        9D+1       -0.00000  -0.00000   0.00000   0.00192   0.00000
  21        9D-1       -0.03766  -0.02639  -0.05348  -0.00000   0.04502
  22        9D+2       -0.00287  -0.01119  -0.00287   0.00000   0.00553
  23        9D-2       -0.00000  -0.00000   0.00000   0.00139   0.00000
  24 2   C  1S         -0.37962   0.14340  -0.01030   0.00000  -0.22959
  25        2S          0.01486   0.06389  -0.03801  -0.00000  -0.03043
  26        3S          0.20418   0.04170  -0.26827  -0.00000  -0.11139
  27        4S          0.08838  -0.02910   0.00228  -0.00000  -0.01274
  28        5PX         0.00000   0.00000  -0.00000   0.29803  -0.00000
  29        5PY        -0.03011  -0.01650   0.15828   0.00000   0.06542
  30        5PZ        -0.01221  -0.03856   0.04304  -0.00000   0.01758
  31        6PX         0.00000   0.00000  -0.00000   0.17178  -0.00000
  32        6PY        -0.07745  -0.00030   0.12575   0.00000   0.02550
  33        6PZ         0.04856   0.01707   0.21921   0.00000  -0.09209
  34        7PX         0.00000   0.00000  -0.00000   0.00792  -0.00000
  35        7PY        -0.02379  -0.01131  -0.03248  -0.00000  -0.03054
  36        7PZ        -0.00649  -0.02979  -0.11416  -0.00000  -0.04184
  37        8D 0       -0.00177  -0.00646   0.00672  -0.00000   0.00437
  38        8D+1       -0.00000  -0.00000   0.00000   0.01709   0.00000
  39        8D-1        0.00318   0.00072   0.00016   0.00000  -0.00074
  40        8D+2       -0.00041  -0.00471   0.00800  -0.00000   0.00387
  41        8D-2       -0.00000  -0.00000   0.00000  -0.00130   0.00000
  42        9D 0       -0.00243   0.02211   0.01509   0.00000  -0.02078
  43        9D+1       -0.00000  -0.00000   0.00000   0.00652   0.00000
  44        9D-1       -0.01626  -0.01008  -0.03856  -0.00000   0.04026
  45        9D+2       -0.00457   0.01942   0.00839   0.00000  -0.01339
  46        9D-2        0.00000   0.00000  -0.00000  -0.00069  -0.00000
  47 3   C  1S          0.22255   0.03774   0.01458  -0.00000   0.11733
  48        2S         -0.08402  -0.03770   0.00749   0.00000   0.00929
  49        3S         -0.23843  -0.11375  -0.15148   0.00000   0.15007
  50        4S          0.08927   0.32225   0.50067  -0.00000  -0.14061
  51        5PX        -0.00000  -0.00000   0.00000   0.00110   0.00000
  52        5PY        -0.03230  -0.00734  -0.07289  -0.00000  -0.01601
  53        5PZ        -0.01555   0.09487   0.10340  -0.00000  -0.04335
  54        6PX        -0.00000  -0.00000   0.00000   0.00025   0.00000
  55        6PY         0.04278  -0.00853   0.03987   0.00000   0.02854
  56        6PZ         0.04843   0.03599   0.12744   0.00000  -0.00238
  57        7PX        -0.00000  -0.00000   0.00000   0.00016   0.00000
  58        7PY         0.02188   0.02801   0.15559   0.00000   0.02608
  59        7PZ        -0.01390  -0.03733  -0.09107  -0.00000   0.06821
  60        8D 0       -0.00383   0.00315   0.00385  -0.00000  -0.00308
  61        8D+1       -0.00000  -0.00000   0.00000  -0.00040   0.00000
  62        8D-1       -0.00083   0.00167   0.01115   0.00000   0.00329
  63        8D+2        0.00370   0.00080  -0.00151  -0.00000  -0.00203
  64        8D-2       -0.00000  -0.00000   0.00000   0.03169   0.00000
  65        9D 0        0.07140  -0.01817   0.03288   0.00000  -0.06704
  66        9D+1        0.00000   0.00000  -0.00000   0.00013  -0.00000
  67        9D-1       -0.00829  -0.00419  -0.05049  -0.00000  -0.01701
  68        9D+2        0.03841  -0.01220   0.00408   0.00000  -0.03599
  69        9D-2       -0.00000  -0.00000   0.00000   0.01484   0.00000
  70 4   C  1S          0.51890   0.22439   0.00200  -0.00000   0.02675
  71        2S          0.03075   0.02314  -0.16545   0.00000  -0.05036
  72        3S         -0.00799   0.01942  -0.20750   0.00000  -0.24869
  73        4S         -0.06755  -0.21893   0.20183   0.00000   0.10000
  74        5PX         0.00000   0.00000  -0.00000   0.00658  -0.00000
  75        5PY         0.04065  -0.01892  -0.01891  -0.00000   0.00003
  76        5PZ         0.02378   0.16234  -0.13604  -0.00000  -0.09689
  77        6PX         0.00000   0.00000  -0.00000   0.00309  -0.00000
  78        6PY        -0.04838   0.05098   0.18934   0.00000   0.04045
  79        6PZ        -0.01383   0.01475   0.13474  -0.00000  -0.02720
  80        7PX         0.00000   0.00000  -0.00000  -0.00079  -0.00000
  81        7PY        -0.03827  -0.02499  -0.20318  -0.00000  -0.04137
  82        7PZ        -0.01549   0.10831   0.02267  -0.00000  -0.02401
  83        8D 0       -0.00062  -0.01061   0.00142   0.00000   0.00012
  84        8D+1        0.00000   0.00000  -0.00000   0.00007  -0.00000
  85        8D-1        0.00263  -0.00099  -0.00425  -0.00000  -0.00239
  86        8D+2       -0.00228  -0.00681   0.00187   0.00000   0.00190
  87        8D-2       -0.00000  -0.00000   0.00000   0.02668   0.00000
  88        9D 0       -0.01972   0.03126  -0.16078  -0.00000   0.01648
  89        9D+1        0.00000   0.00000  -0.00000   0.00066  -0.00000
  90        9D-1       -0.03993   0.03359   0.08915  -0.00000   0.01073
  91        9D+2       -0.00315   0.02241  -0.09212  -0.00000   0.00145
  92        9D-2       -0.00000  -0.00000   0.00000   0.00824   0.00000
  93 5   C  1S          0.39316  -0.17737  -0.05324   0.00000  -0.38866
  94        2S          0.01361  -0.02693   0.08562   0.00000   0.03044
  95        3S         -0.03197  -0.04459   0.11606   0.00000   0.14966
  96        4S         -0.04278  -0.08244   0.05375   0.00000   0.15171
  97        5PX        -0.00000  -0.00000   0.00000  -0.31976   0.00000
  98        5PY        -0.01116  -0.05653  -0.05276   0.00000   0.01099
  99        5PZ        -0.03949   0.01960   0.00970  -0.00000  -0.01708
 100        6PX        -0.00000  -0.00000   0.00000  -0.18046   0.00000
 101        6PY         0.03481   0.00974   0.11103   0.00000   0.03444
 102        6PZ         0.18267   0.00411   0.09990   0.00000  -0.12151
 103        7PX        -0.00000  -0.00000   0.00000  -0.01621   0.00000
 104        7PY         0.00114  -0.02726   0.03631   0.00000   0.01536
 105        7PZ         0.02181   0.00426   0.06029   0.00000  -0.01951
 106        8D 0        0.00332   0.00469   0.00595   0.00000   0.00066
 107        8D+1       -0.00000  -0.00000   0.00000   0.01452   0.00000
 108        8D-1       -0.00074  -0.00251   0.01200   0.00000   0.00361
 109        8D+2        0.00194   0.00256   0.00207   0.00000  -0.00037
 110        8D-2       -0.00000  -0.00000   0.00000  -0.00178   0.00000
 111        9D 0       -0.03330  -0.00794  -0.03918  -0.00000   0.00091
 112        9D+1       -0.00000  -0.00000   0.00000  -0.00224   0.00000
 113        9D-1        0.04437   0.02073   0.03458  -0.00000  -0.04474
 114        9D+2       -0.01164  -0.01022  -0.01685  -0.00000  -0.00130
 115        9D-2        0.00000   0.00000  -0.00000   0.00173  -0.00000
 116 6   C  1S         -0.36725   0.09558  -0.11856  -0.00000  -0.24004
 117        2S          0.01088   0.07969   0.07277   0.00000   0.00564
 118        3S          0.12116   0.14289   0.11473   0.00000  -0.02229
 119        4S          0.00986  -0.07049  -0.41819   0.00000  -0.10224
 120        5PX         0.00000   0.00000  -0.00000  -0.28872  -0.00000
 121        5PY        -0.02728   0.02838  -0.22332   0.00000  -0.07994
 122        5PZ         0.02249  -0.06029  -0.00787   0.00000   0.02506
 123        6PX         0.00000   0.00000  -0.00000  -0.16784  -0.00000
 124        6PY        -0.00716   0.07863   0.11777  -0.00000   0.01608
 125        6PZ         0.14765  -0.02659   0.16105   0.00000  -0.10168
 126        7PX         0.00000   0.00000  -0.00000  -0.00726  -0.00000
 127        7PY        -0.00543  -0.00736  -0.09566  -0.00000   0.00577
 128        7PZ         0.02770   0.00181   0.08673   0.00000  -0.00432
 129        8D 0       -0.00067  -0.00650   0.00844   0.00000   0.00589
 130        8D+1       -0.00000  -0.00000   0.00000  -0.01708   0.00000
 131        8D-1        0.00179  -0.00109   0.00711   0.00000   0.00257
 132        8D+2       -0.00044  -0.00525   0.00512   0.00000   0.00365
 133        8D-2        0.00000   0.00000  -0.00000  -0.00066  -0.00000
 134        9D 0        0.02975   0.00373  -0.02082  -0.00000  -0.02885
 135        9D+1       -0.00000  -0.00000   0.00000  -0.00676   0.00000
 136        9D-1        0.01418  -0.00195  -0.04556   0.00000  -0.06060
 137        9D+2        0.01053   0.00978  -0.00995  -0.00000  -0.01671
 138        9D-2       -0.00000  -0.00000   0.00000  -0.00091   0.00000
 139 7   N  1S          0.16488   0.56588  -0.08161   0.00000   0.44117
 140        2S         -0.08218   0.04560  -0.07660  -0.00000   0.00534
 141        3S         -0.12595  -0.08340   0.01029  -0.00000   0.03782
 142        4S         -0.03426  -0.12313   0.01545   0.00000  -0.01534
 143        5PX        -0.00000  -0.00000   0.00000  -0.00488   0.00000
 144        5PY        -0.04503   0.02565   0.13341   0.00000   0.03140
 145        5PZ         0.02712  -0.05629  -0.19447  -0.00000   0.04151
 146        6PX        -0.00000  -0.00000   0.00000  -0.00273   0.00000
 147        6PY        -0.02502   0.01562   0.08292   0.00000   0.01960
 148        6PZ         0.03192  -0.08271   0.07112   0.00000   0.01893
 149        7PX        -0.00000  -0.00000   0.00000  -0.00031   0.00000
 150        7PY         0.00145   0.00064   0.00835  -0.00000   0.00223
 151        7PZ         0.01593   0.04010   0.17476   0.00000  -0.05417
 152        8D 0       -0.00625   0.00746  -0.00414   0.00000  -0.00364
 153        8D+1        0.00000   0.00000  -0.00000  -0.00028  -0.00000
 154        8D-1       -0.00111   0.00178   0.01078   0.00000   0.00241
 155        8D+2        0.00049  -0.00043  -0.00004   0.00000   0.00001
 156        8D-2       -0.00000  -0.00000   0.00000   0.00177   0.00000
 157        9D 0        0.00147  -0.01563   0.01829   0.00000  -0.01657
 158        9D+1        0.00000   0.00000  -0.00000  -0.00024  -0.00000
 159        9D-1        0.00330   0.00054   0.00721   0.00000   0.00187
 160        9D+2       -0.00293   0.00212   0.00092  -0.00000   0.00169
 161        9D-2       -0.00000  -0.00000   0.00000   0.00311   0.00000
 162 8   N  1S          0.05724  -0.20072   0.06849  -0.00000   0.08981
 163        2S         -0.01731   0.19293  -0.02366  -0.00000  -0.14836
 164        3S         -0.01416   0.34442  -0.07529  -0.00000  -0.18174
 165        4S          0.00237   0.05782  -0.18036  -0.00000   0.03100
 166        5PX         0.00000   0.00000  -0.00000  -0.00406  -0.00000
 167        5PY        -0.03146   0.02373   0.13104   0.00000   0.02967
 168        5PZ         0.02683   0.14955   0.20052   0.00000  -0.11674
 169        6PX         0.00000   0.00000  -0.00000  -0.00156  -0.00000
 170        6PY        -0.01510   0.01042   0.05580   0.00000   0.01228
 171        6PZ         0.00825   0.01154   0.12617   0.00000  -0.04342
 172        7PX         0.00000   0.00000  -0.00000   0.00006  -0.00000
 173        7PY        -0.00083  -0.00046  -0.00374   0.00000  -0.00077
 174        7PZ        -0.00294  -0.01335   0.01641   0.00000  -0.00449
 175        8D 0       -0.00333  -0.00877  -0.01601  -0.00000   0.00556
 176        8D+1        0.00000   0.00000  -0.00000   0.00039  -0.00000
 177        8D-1        0.00351  -0.00214  -0.01124  -0.00000  -0.00258
 178        8D+2        0.00009  -0.00038  -0.00008   0.00000   0.00022
[...]
    D8        0.00000  -0.00000   0.00000   0.00000   0.00000   0.00000
    D9        0.00000  -0.00000   0.00000  -0.00000   0.00000   0.00000
   D10        3.14159  -0.00000   0.00000  -0.00000   0.00000   3.14159
   D11        3.14159   0.00000   0.00000  -0.00000   0.00000   3.14159
   D12        0.00000   0.00000   0.00000  -0.00000   0.00000   0.00000
   D13        0.00000  -0.00000   0.00000  -0.00000   0.00000   0.00000
   D14        3.14159  -0.00000   0.00000  -0.00000   0.00000   3.14159
   D15        3.14159  -0.00000   0.00000  -0.00000   0.00000   3.14159
   D16       -0.00000  -0.00000   0.00000  -0.00000   0.00000   0.00000
   D17       -0.00000  -0.00000   0.00000   0.00000   0.00000   0.00000
   D18        3.14159   0.00000   0.00000  -0.00000   0.00000   3.14159
   D19        3.14159   0.00000   0.00000   0.00000   0.00000   3.14159
   D20        0.00000   0.00000   0.00000   0.00000   0.00000   0.00000
   D21        0.00000   0.00000   0.00000   0.00000  -0.00000   0.00000
   D22        3.14159   0.00000   0.00000   0.00000   0.00000   3.14159
   D23        3.14159   0.00000   0.00000  -0.00000   0.00000   3.14159
   D24        0.00000   0.00000   0.00000   0.00000   0.00000   0.00000
         Item               Value     Threshold  Converged?
 Maximum Force            0.000200     0.000450     YES
 RMS     Force            0.000040     0.000300     YES
 Maximum Displacement     0.000444     0.001800     YES
 RMS     Displacement     0.000112     0.001200     YES
 Predicted change in Energy=-1.525454D-07
 Optimization completed.
    -- Stationary point found.
                           ----------------------------
                           !   Optimized Parameters   !
                           ! (Angstroms and Degrees)  !
 --------------------------                            --------------------------
 ! Name  Definition              Value          Derivative Info.                !
 --------------------------------------------------------------------------------
 ! R1    R(1,2)                  1.386          -DE/DX =    0.0                 !
 ! R2    R(1,3)                  1.4104         -DE/DX =    0.0                 !
 ! R3    R(1,12)                 1.0887         -DE/DX =    0.0                 !
 ! R4    R(2,4)                  1.4129         -DE/DX =   -0.0001              !
 ! R5    R(2,9)                  1.0886         -DE/DX =    0.0                 !
 ! R6    R(3,5)                  1.4104         -DE/DX =    0.0                 !
 ! R7    R(3,7)                  1.3841         -DE/DX =   -0.0002              !
 ! R8    R(4,6)                  1.4129         -DE/DX =   -0.0001              !
 ! R9    R(4,13)                 1.4322         -DE/DX =    0.0001              !
 ! R10   R(5,6)                  1.386          -DE/DX =    0.0                 !
 ! R11   R(5,10)                 1.0887         -DE/DX =    0.0                 !
 ! R12   R(6,11)                 1.0886         -DE/DX =    0.0                 !
 ! R13   R(7,8)                  1.1139         -DE/DX =   -0.0002              !
 ! R14   R(13,14)                1.1625         -DE/DX =    0.0                 !
 ! A1    A(2,1,3)              117.2601         -DE/DX =    0.0                 !
 ! A2    A(2,1,12)             121.5602         -DE/DX =    0.0                 !
 ! A3    A(3,1,12)             121.1797         -DE/DX =    0.0                 !
 ! A4    A(1,2,4)              120.0706         -DE/DX =    0.0                 !
 ! A5    A(1,2,9)              119.9899         -DE/DX =    0.0                 !
 ! A6    A(4,2,9)              119.9395         -DE/DX =    0.0                 !
 ! A7    A(1,3,5)              124.1851         -DE/DX =    0.0                 !
 ! A8    A(1,3,7)              117.9074         -DE/DX =    0.0                 !
 ! A9    A(5,3,7)              117.9074         -DE/DX =    0.0                 !
 ! A10   A(2,4,6)              121.1535         -DE/DX =    0.0001              !
 ! A11   A(2,4,13)             119.4232         -DE/DX =    0.0                 !
 ! A12   A(6,4,13)             119.4232         -DE/DX =    0.0                 !
 ! A13   A(3,5,6)              117.2601         -DE/DX =    0.0                 !
 ! A14   A(3,5,10)             121.1797         -DE/DX =    0.0                 !
 ! A15   A(6,5,10)             121.5602         -DE/DX =    0.0                 !
 ! A16   A(4,6,5)              120.0706         -DE/DX =    0.0                 !
 ! A17   A(4,6,11)             119.9395         -DE/DX =    0.0                 !
 ! A18   A(5,6,11)             119.9899         -DE/DX =    0.0                 !
 ! A19   L(3,7,8,10,-1)        180.0            -DE/DX =    0.0                 !
 ! A20   L(4,13,14,9,-1)       180.0            -DE/DX =    0.0                 !
 ! A21   L(3,7,8,10,-2)        180.0            -DE/DX =    0.0                 !
 ! A22   L(4,13,14,9,-2)       180.0            -DE/DX =    0.0                 !
 ! D1    D(3,1,2,4)              0.0            -DE/DX =    0.0                 !
 ! D2    D(3,1,2,9)            180.0            -DE/DX =    0.0                 !
 ! D3    D(12,1,2,4)           180.0            -DE/DX =    0.0                 !
 ! D4    D(12,1,2,9)             0.0            -DE/DX =    0.0                 !
 ! D5    D(2,1,3,5)              0.0            -DE/DX =    0.0                 !
 ! D6    D(2,1,3,7)            180.0            -DE/DX =    0.0                 !
 ! D7    D(12,1,3,5)           180.0            -DE/DX =    0.0                 !
 ! D8    D(12,1,3,7)             0.0            -DE/DX =    0.0                 !
 ! D9    D(1,2,4,6)              0.0            -DE/DX =    0.0                 !
 ! D10   D(1,2,4,13)           180.0            -DE/DX =    0.0                 !
 ! D11   D(9,2,4,6)            180.0            -DE/DX =    0.0                 !
 ! D12   D(9,2,4,13)             0.0            -DE/DX =    0.0                 !
 ! D13   D(1,3,5,6)              0.0            -DE/DX =    0.0                 !
 ! D14   D(1,3,5,10)           180.0            -DE/DX =    0.0                 !
 ! D15   D(7,3,5,6)            180.0            -DE/DX =    0.0                 !
 ! D16   D(7,3,5,10)             0.0            -DE/DX =    0.0                 !
 ! D17   D(2,4,6,5)              0.0            -DE/DX =    0.0                 !
 ! D18   D(2,4,6,11)           180.0            -DE/DX =    0.0                 !
 ! D19   D(13,4,6,5)           180.0            -DE/DX =    0.0                 !
 ! D20   D(13,4,6,11)            0.0            -DE/DX =    0.0                 !
 ! D21   D(3,5,6,4)              0.0            -DE/DX =    0.0                 !
 ! D22   D(3,5,6,11)           180.0            -DE/DX =    0.0                 !
 ! D23   D(10,5,6,4)           180.0            -DE/DX =    0.0                 !
 ! D24   D(10,5,6,11)            0.0            -DE/DX =    0.0                 !
 --------------------------------------------------------------------------------
 GradGradGradGradGradGradGradGradGradGradGradGradGradGradGradGradGradGrad

 Leave Link  103 at Sun Aug  9 02:17:06 2020, MaxMem=   524288000 cpu:               0.1 elap:               0.0
 (Enter /home/ubuntu/g16/l9999.exe)

 ----------------------------------------------------------------------

 Electric dipole moment (input orientation):
 (Debye = 10**-18 statcoulomb cm , SI units = C m)
                  (au)            (Debye)         (10**-30 SI)
   Tot        0.288345D+01      0.732901D+01      0.244469D+02
   x          0.000000D+00      0.000000D+00      0.000000D+00
   y          0.288345D+01      0.732901D+01      0.244469D+02
   z          0.000000D+00      0.000000D+00      0.000000D+00

 Dipole polarizability, Alpha (input orientation).
 (esu units = cm**3 , SI units = C**2 m**2 J**-1)
 Alpha(0;0):
               (au)            (10**-24 esu)      (10**-40 SI)
   iso        0.107335D+03      0.159053D+02      0.176971D+02
   aniso      0.123795D+03      0.183445D+02      0.204110D+02
   xx         0.853016D+02      0.126404D+02      0.140643D+02
   yx         0.000000D+00      0.000000D+00      0.000000D+00
   yy         0.187230D+03      0.277446D+02      0.308700D+02
   zx         0.000000D+00      0.000000D+00      0.000000D+00
   zy         0.000000D+00      0.000000D+00      0.000000D+00
   zz         0.494723D+02      0.733105D+01      0.815689D+01

 ----------------------------------------------------------------------

 Dipole orientation:
     6         -2.35524126          0.00000000          1.27751155
     6         -2.32564815          0.00000000         -1.34153547
     6         -0.00000000          0.00000000          2.52493866
     6          0.00000000         -0.00000000         -2.65321327
     6          2.35524126         -0.00000000          1.27751155
     6          2.32564815         -0.00000000         -1.34153547
     7         -0.00000000          0.00000000          5.14050859
     7         -0.00000000          0.00000000          7.24551232
     1         -4.09564122          0.00000000         -2.38986104
     1          4.12039664         -0.00000000          2.33447317
     1          4.09564122         -0.00000000         -2.38986104
     1         -4.12039664          0.00000000          2.33447317
     6          0.00000000         -0.00000000         -5.35966013
     7          0.00000000         -0.00000000         -7.55650455

 Electric dipole moment (dipole orientation):
 (Debye = 10**-18 statcoulomb cm , SI units = C m)
                  (au)            (Debye)         (10**-30 SI)
   Tot        0.288345D+01      0.732901D+01      0.244469D+02
   x          0.000000D+00      0.000000D+00      0.000000D+00
   y          0.000000D+00      0.000000D+00      0.000000D+00
   z          0.288345D+01      0.732901D+01      0.244469D+02

 Dipole polarizability, Alpha (dipole orientation).
 (esu units = cm**3 , SI units = C**2 m**2 J**-1)
 Alpha(0;0):
               (au)            (10**-24 esu)      (10**-40 SI)
   iso        0.107335D+03      0.159053D+02      0.176971D+02
   aniso      0.123795D+03      0.183445D+02      0.204110D+02
   xx         0.853016D+02      0.126404D+02      0.140643D+02
   yx         0.000000D+00      0.000000D+00      0.000000D+00
   yy         0.494723D+02      0.733105D+01      0.815689D+01
   zx         0.000000D+00      0.000000D+00      0.000000D+00
   zy         0.000000D+00      0.000000D+00      0.000000D+00
   zz         0.187230D+03      0.277446D+02      0.308700D+02

 ----------------------------------------------------------------------
 1\1\GINC-192-168-10-17\Freq\UB3LYP\Aug-CC-pVDZ\C7H4N3(1+)\UBUNTU\09-Au
 g-2020\0\\#P Geom=AllCheck Guess=TCheck SCRF=Check GenChk UB3LYP/Aug-C
 C-pVDZ Freq\\4-CNPhN2+_UB3LYP-aug-cc-pVDZ\\1,1\C,-1.24634,0.67603,0.\C
 ,-1.23068,-0.70991,0.\C,0.,1.33614,0.\C,0.,-1.40402,0.\C,1.24634,0.676
 03,0.\C,1.23068,-0.70991,0.\N,0.,2.72024,0.\N,0.,3.83416,0.\H,-2.16732
 ,-1.26466,0.\H,2.18042,1.23535,0.\H,2.16732,-1.26466,0.\H,-2.18042,1.2
 3535,0.\C,0.,-2.83621,0.\N,0.,-3.99873,0.\\Version=ES64L-G16RevA.03\St
 ate=1-A1\HF=-433.1151932\S2=0.\S2-1=0.\S2A=0.\RMSD=2.443e-10\RMSF=7.21
 5e-05\ZeroPoint=0.0967629\Thermal=0.104776\Dipole=0.,2.883454,0.\Dipol
 eDeriv=-0.0220341,0.4020673,0.,-0.2235698,0.5730739,0.,0.,0.,-0.004700
 6,-0.0678539,0.3419605,0.,0.3228156,-0.534669,0.,0.,0.,-0.0428585,0.24
 68751,0.,0.,0.,-1.3234056,0.,0.,0.,0.0647798,0.3715532,0.,0.,0.,1.0008
 843,0.,0.,0.,0.1593014,-0.0220341,-0.4020672,0.,0.2235698,0.5730739,0.
 ,0.,0.,-0.0047006,-0.0678539,-0.3419605,0.,-0.3228156,-0.5346689,0.,0.
 ,0.,-0.0428585,0.1334977,0.,0.,0.,2.334433,0.,0.,0.,0.2645175,0.089932
 4,0.,0.,0.,-0.9564359,0.,0.,0.,0.0949779,0.1139711,0.0116451,0.,0.0017
 704,0.0879985,0.,0.,0.,0.1429323,0.1280124,0.0098769,0.,-0.0022429,0.0
 680381,0.,0.,0.,0.153991,0.1139711,-0.0116451,0.,-0.0017704,0.0879985,
 0.,0.,0.,0.1429323,0.1280124,-0.0098769,0.,0.0022429,0.0680381,0.,0.,0
 .,0.153991,0.0656324,0.,0.,0.,-0.8092616,0.,0.,0.,0.1519943,-0.2116818
 ,0.,0.,0.,0.3649027,0.,0.,0.,-0.2342993\Polar=85.3016319,0.,187.229754
 8,0.,0.,49.4723445\Quadrupole=4.4411605,2.3720498,-6.8132103,0.,0.,0.\
 PG=C02V [C2(N1C1C1C1N1N1),SGV(C4H4)]\NImag=0\\0.70757821,-0.06142642,0
 .70047704,0.,0.,0.13286967,-0.12357610,-0.02946179,0.,0.70087205,0.029
 77487,-0.36401059,0.,0.05612617,0.70780366,0.,0.,-0.06435735,0.,0.,0.1
 3563575,-0.28276058,-0.04606830,0.,0.02371229,-0.06228190,0.,0.6762961
 2,-0.08206095,-0.10985823,0.,-0.01945606,-0.04248685,0.,0.,0.52096518,
 0.,0.,-0.05741453,0.,0.,0.00860430,0.,0.,0.12111021,0.02939068,0.06646
 367,0.,-0.26819283,0.04489903,0.,-0.05144018,0.,0.,0.62955826,0.028629
 67,-0.03130938,0.,0.09621191,-0.15347277,0.,0.,0.00575472,0.,0.,0.6743
 8915,0.,0.,0.00719176,0.,0.,-0.06936554,0.,0.,-0.01059769,0.,0.,0.1610
 4225,-0.05176949,-0.01621071,0.,-0.01305070,0.02811654,0.,-0.28276058,
 0.08206095,0.,0.02939068,-0.02862968,0.,0.70757821,0.01621071,0.047117
 89,0.,0.01966722,-0.04087548,0.,0.04606830,-0.10985822,0.,-0.06646367,
 -0.03130938,0.,0.06142642,0.70047704,0.,0.,0.01260172,0.,0.,-0.0053111
 2,0.,0.,-0.05741453,0.,0.,0.00719176,0.,0.,0.13286967,-0.01305070,-0.0
 1966722,0.,-0.04799245,0.01456466,0.,0.02371229,0.01945606,0.,-0.26819
 283,-0.09621191,0.,-0.12357610,0.02946179,0.,0.70087205,-0.02811654,-0
 .04087548,0.,-0.01456466,0.06210956,0.,0.06228190,-0.04248685,0.,-0.04
 489903,-0.15347276,0.,-0.02977487,-0.36401059,0.,-0.05612617,0.7078036
 6,0.,0.,-0.00531112,0.,0.,0.00934552,0.,0.,0.00860430,0.,0.,-0.0693655
 4,0.,0.,-0.06435735,0.,0.,0.13563575,0.01200888,-0.03400077,0.,-0.0063
 8085,-0.00704359,0.,-0.09987678,0.,0.,-0.00740680,0.,0.,0.01200888,0.0
 3400077,0.,-0.00638085,0.00704359,0.,0.12950625,-0.03058420,-0.0769525
 2,0.,-0.01846225,0.01734876,0.,0.,-0.14546994,0.,0.,-0.01102398,0.,0.0
 3058420,-0.07695252,0.,0.01846225,0.01734875,0.,0.,1.62263141,0.,0.,-0
 .00703230,0.,0.,0.00848652,0.,0.,-0.04641778,0.,0.,-0.00119261,0.,0.,-
 0.00703230,0.,0.,0.00848652,0.,0.,0.09341204,-0.00389543,0.00212920,0.
 ,0.00134940,0.00117124,0.,0.02380800,0.,0.,0.00162962,0.,0.,-0.0038954
 4,-0.00212920,0.,0.00134940,-0.00117124,0.,-0.03687698,0.,0.,0.0177839
 7,0.01609223,0.01845531,0.,0.00613439,-0.00867656,0.,0.,-0.08300994,0.
 ,0.,0.00742355,0.,-0.01609223,0.01845531,0.,-0.00613439,-0.00867655,0.
 ,0.,-1.35628462,0.,0.,1.41737146,0.,0.,0.00466866,0.,0.,-0.00203502,0.
 ,0.,0.01282987,0.,0.,0.00066779,0.,0.,0.00466867,0.,0.,-0.00203502,0.,
 0.,-0.04234360,0.,0.,0.02280899,0.00578278,0.00365897,0.,-0.27485890,-
 0.12818036,0.,0.00153448,0.00152577,0.,-0.01665414,-0.01391832,0.,-0.0
 0001143,0.00077812,0.,-0.00233214,0.00337249,0.,0.00103541,0.00013619,
 0.,-0.00035329,0.00033087,0.,0.28522195,-0.02568307,-0.01153850,0.,-0.
 12948287,-0.13271409,0.,0.00111834,-0.00370205,0.,0.01653086,0.0116021
 9,0.,0.00061632,-0.00045895,0.,0.00333581,-0.00175027,0.,-0.00169098,-
 0.00163984,0.,0.00033560,0.00009777,0.,0.13374600,0.13775241,0.,0.,0.0
 0439444,0.,0.,-0.03918617,0.,0.,0.00673003,0.,0.,0.00435024,0.,0.,-0.0
 0130998,0.,0.,0.00605533,0.,0.,0.00175884,0.,0.,-0.00061908,0.,0.,0.02
 610841,-0.00166297,0.00382618,0.,0.00062537,-0.00003653,0.,-0.01634233
 ,-0.01229127,0.,0.00077684,0.00135596,0.,-0.27372656,-0.12863992,0.,0.
 00636905,0.00298473,0.,0.00051294,-0.00310951,0.,-0.00020300,0.0014957
 9,0.,-0.00002211,-0.00007537,0.,0.28324058,0.00321866,-0.00184487,0.,0
 .00041323,-0.00054558,0.,0.01709250,0.00928696,0.,0.00089216,-0.004982
 92,0.,-0.13027653,-0.13415432,0.,-0.02604521,-0.00886318,0.,0.00032610
 ,0.00315689,0.,0.00012482,-0.00067097,0.,-0.00005626,0.00003460,0.,0.1
 3481712,0.13760834,0.,0.,0.00436604,0.,0.,-0.00134740,0.,0.,0.00338961
 ,0.,0.,0.00764176,0.,0.,-0.03673678,0.,0.,0.00607618,0.,0.,-0.00406199
 ,0.,0.,0.00079203,0.,0.,-0.00068443,0.,0.,0.02427455,-0.00001143,-0.00
 077812,0.,-0.00233214,-0.00337249,0.,0.00153448,-0.00152577,0.,-0.0166
 5414,0.01391832,0.,0.00578278,-0.00365897,0.,-0.27485890,0.12818036,0.
 ,0.00103541,-0.00013619,0.,-0.00035329,-0.00033087,0.,-0.00064593,0.00
 072045,0.,0.00070544,-0.00004095,0.,0.28522195,-0.00061632,-0.00045895
 ,0.,-0.00333581,-0.00175027,0.,-0.00111834,-0.00370205,0.,-0.01653086,
 0.01160219,0.,0.02568307,-0.01153850,0.,0.12948287,-0.13271409,0.,0.00
 169098,-0.00163984,0.,-0.00033560,0.00009777,0.,-0.00072045,0.00057934
 ,0.,0.00012317,0.00094011,0.,-0.13374600,0.13775241,0.,0.,-0.00130998,
 0.,0.,0.00605533,0.,0.,0.00673003,0.,0.,0.00435024,0.,0.,0.00439444,0.
 ,0.,-0.03918617,0.,0.,0.00175884,0.,0.,-0.00061908,0.,0.,-0.00007796,0
 .,0.,-0.00443515,0.,0.,0.02610841,-0.27372656,0.12863992,0.,0.00636905
 ,-0.00298473,0.,-0.01634233,0.01229127,0.,0.00077684,-0.00135596,0.,-0
 .00166297,-0.00382618,0.,0.00062537,0.00003653,0.,0.00051294,0.0031095
 1,0.,-0.00020300,-0.00149579,0.,0.00070544,-0.00012317,0.,-0.00051219,
 0.00063730,0.,-0.00002211,0.00007537,0.,0.28324058,0.13027653,-0.13415
 432,0.,0.02604521,-0.00886318,0.,-0.01709250,0.00928696,0.,-0.00089216
 ,-0.00498292,0.,-0.00321866,-0.00184487,0.,-0.00041323,-0.00054558,0.,
 -0.00032610,0.00315689,0.,-0.00012482,-0.00067097,0.,0.00004095,0.0009
 4011,0.,-0.00063730,0.00057812,0.,0.00005626,0.00003460,0.,-0.13481712
 ,0.13760834,0.,0.,-0.03673678,0.,0.,0.00607618,0.,0.,0.00338961,0.,0.,
 0.00764176,0.,0.,0.00436604,0.,0.,-0.00134740,0.,0.,-0.00406199,0.,0.,
 0.00079203,0.,0.,-0.00443515,0.,0.,0.00123690,0.,0.,-0.00068443,0.,0.,
 0.02427455,-0.00510370,0.00362734,0.,0.00537318,0.03124327,0.,-0.00163
 309,0.,0.,-0.08078109,0.,0.,-0.00510370,-0.00362734,0.,0.00537318,-0.0
 3124327,0.,0.00024620,0.,0.,-0.00014540,0.,0.,0.00045300,0.00088825,0.
 ,0.00033746,-0.00131086,0.,0.00045300,-0.00088825,0.,0.00033746,0.0013
 1086,0.,0.11074557,0.00460530,0.00856186,0.,0.01847617,-0.03982035,0.,
 0.,-0.00923223,0.,0.,-0.29715147,0.,-0.00460529,0.00856186,0.,-0.01847
 617,-0.03982036,0.,0.,0.01222114,0.,0.,-0.00777600,0.,-0.00088783,0.00
 092887,0.,0.00008987,-0.00029374,0.,0.00088783,0.00092887,0.,-0.000089
 88,-0.00029374,0.,0.,1.56239835,0.,0.,0.00724095,0.,0.,0.00668407,0.,0
 .,0.00043217,0.,0.,-0.06313044,0.,0.,0.00724095,0.,0.,0.00668407,0.,0.
 ,-0.00205786,0.,0.,0.00050959,0.,0.,-0.00345127,0.,0.,-0.00050239,0.,0
 .,-0.00345127,0.,0.,-0.00050239,0.,0.,0.07214123,0.00079642,-0.0007319
 4,0.,-0.00191737,-0.00199618,0.,0.00055820,0.,0.,0.01779906,0.,0.,0.00
 079642,0.00073194,0.,-0.00191737,0.00199618,0.,0.00005533,0.,0.,0.0000
 0543,0.,0.,0.00014488,-0.00023617,0.,-0.00009853,0.00020792,0.,0.00014
 488,0.00023617,0.,-0.00009853,-0.00020792,0.,-0.03055207,0.,0.,0.01428
 325,-0.00032046,-0.00360928,0.,-0.00831085,0.00595374,0.,0.,0.00451255
 ,0.,0.,-0.02306623,0.,0.00032045,-0.00360928,0.,0.00831086,0.00595375,
 0.,0.,-0.00590059,0.,0.,0.00386445,0.,0.00017388,-0.00013159,0.,0.0000
 9708,-0.00024943,0.,-0.00017388,-0.00013159,0.,-0.00009708,-0.00024943
 ,0.,0.,-1.19921305,0.,0.,1.21587597,0.,0.,-0.00117119,0.,0.,0.00071492
 ,0.,0.,0.00002441,0.,0.,0.01357428,0.,0.,-0.00117118,0.,0.,0.00071492,
 0.,0.,0.00029766,0.,0.,-0.00008584,0.,0.,0.00036675,0.,0.,-0.00000892,
 0.,0.,0.00036675,0.,0.,-0.00000892,0.,0.,-0.02783742,0.,0.,0.01422379\
 \-0.00000145,0.00005036,0.,0.00000781,0.00011059,0.,0.,-0.00029984,0.,
 0.,-0.00023023,0.,0.00000145,0.00005036,0.,-0.00000781,0.00011059,0.,0
 .,0.00003693,0.,0.,0.00016277,0.,-0.00000880,-0.00003067,0.,0.00001125
 ,-0.00000578,0.,0.00000880,-0.00003067,0.,-0.00001125,-0.00000578,0.,0
 .,0.00011992,0.,0.,-0.00003856,0.\\\@


 There ain't no surer way to find out whether you
 like people or hate them than to travel with them.
                                     -- Mark Twain
 Job cpu time:       0 days  1 hours  7 minutes 43.0 seconds.
 Elapsed time:       0 days  0 hours  9 minutes 40.6 seconds.
 File lengths (MBytes):  RWF=    164 Int=      0 D2E=      0 Chk=      8 Scr=      1
 Normal termination of Gaussian 16 at Sun Aug  9 02:17:06 2020.
