 Entering Gaussian System, Link 0=/home/ubuntu/g16/g16
 Input=4-FPhN2+_UB3LYP-aug-cc-pVDZ-Opt.gjf
 Output=4-FPhN2+_UB3LYP-aug-cc-pVDZ-Opt.log
 Initial command:
 /home/ubuntu/g16/l1.exe "/home/ubuntu/g16/Gau-3716.inp" -scrdir="/home/ubuntu/g16/"
 Entering Link 1 = /home/ubuntu/g16/l1.exe PID=      3718.
  
 Copyright (c) 1988,1990,1992,1993,1995,1998,2003,2009,2016,
            Gaussian, Inc.  All Rights Reserved.
  
 This is part of the Gaussian(R) 16 program.  It is based on
 the Gaussian(R) 09 system (copyright 2009, Gaussian, Inc.),
 the Gaussian(R) 03 system (copyright 2003, Gaussian, Inc.),
 the Gaussian(R) 98 system (copyright 1998, Gaussian, Inc.),
 the Gaussian(R) 94 system (copyright 1995, Gaussian, Inc.),
 the Gaussian 92(TM) system (copyright 1992, Gaussian, Inc.),
 the Gaussian 90(TM) system (copyright 1990, Gaussian, Inc.),
 the Gaussian 88(TM) system (copyright 1988, Gaussian, Inc.),
 the Gaussian 86(TM) system (copyright 1986, Carnegie Mellon
 University), and the Gaussian 82(TM) system (copyright 1983,
 Carnegie Mellon University). Gaussian is a federally registered
 trademark of Gaussian, Inc.
  
 This software contains proprietary and confidential information,
 including trade secrets, belonging to Gaussian, Inc.
  
 This software is provided under written license and may be
 used, copied, transmitted, or stored only in accord with that
 written license.
  
 The following legend is applicable only to US Government
 contracts under FAR:
  
                    RESTRICTED RIGHTS LEGEND
  
 Use, reproduction and disclosure by the US Government is
 subject to restrictions as set forth in subparagraphs (a)
 and (c) of the Commercial Computer Software - Restricted
 Rights clause in FAR 52.227-19.
  
 Gaussian, Inc.
 340 Quinnipiac St., Bldg. 40, Wallingford CT 06492
  
  
 ---------------------------------------------------------------
 Warning -- This program may not be used in any manner that
 competes with the business of Gaussian, Inc. or will provide
 assistance to any competitor of Gaussian, Inc.  The licensee
 of this program is prohibited from giving any competitor of
 Gaussian, Inc. access to this program.  By using this program,
 the user acknowledges that Gaussian, Inc. is engaged in the
 business of creating and licensing software in the field of
 computational chemistry and represents and warrants to the
 licensee that it is not a competitor of Gaussian, Inc. and that
 it will not use this program in any manner prohibited above.
 ---------------------------------------------------------------
  

 Cite this work as:
 Gaussian 16, Revision A.03,
 M. J. Frisch, G. W. Trucks, H. B. Schlegel, G. E. Scuseria, 
 M. A. Robb, J. R. Cheeseman, G. Scalmani, V. Barone, 
 G. A. Petersson, H. Nakatsuji, X. Li, M. Caricato, A. V. Marenich, 
 J. Bloino, B. G. Janesko, R. Gomperts, B. Mennucci, H. P. Hratchian, 
 J. V. Ortiz, A. F. Izmaylov, J. L. Sonnenberg, D. Williams-Young, 
 F. Ding, F. Lipparini, F. Egidi, J. Goings, B. Peng, A. Petrone, 
 T. Henderson, D. Ranasinghe, V. G. Zakrzewski, J. Gao, N. Rega, 
 G. Zheng, W. Liang, M. Hada, M. Ehara, K. Toyota, R. Fukuda, 
 J. Hasegawa, M. Ishida, T. Nakajima, Y. Honda, O. Kitao, H. Nakai, 
 T. Vreven, K. Throssell, J. A. Montgomery, Jr., J. E. Peralta, 
 F. Ogliaro, M. J. Bearpark, J. J. Heyd, E. N. Brothers, K. N. Kudin, 
 V. N. Staroverov, T. A. Keith, R. Kobayashi, J. Normand, 
 K. Raghavachari, A. P. Rendell, J. C. Burant, S. S. Iyengar, 
 J. Tomasi, M. Cossi, J. M. Millam, M. Klene, C. Adamo, R. Cammi, 
 J. W. Ochterski, R. L. Martin, K. Morokuma, O. Farkas, 
 J. B. Foresman, and D. J. Fox, Gaussian, Inc., Wallingford CT, 2016.
 
 ******************************************
 Gaussian 16:  ES64L-G16RevA.03 25-Dec-2016
                 9-Aug-2020 
 ******************************************
 %chk=4-FPhN2+_UB3LYP-aug-cc-pVDZ-Opt.chk
 %mem=500MW
 %nproc=7
 Will use up to    7 processors via shared memory.
 ----------------------------------------------------------------------
 #p opt=(maxcycles=777) freq ub3lyp/aug-cc-pVDZ pop=(Bonding,AllOrbital
 s,mk,no,nboread)
 ----------------------------------------------------------------------
 1/6=777,18=20,19=15,26=3,38=1/1,3;
 2/9=110,12=2,17=6,18=5,40=1/2;
 3/5=16,7=10,11=2,25=1,30=1,71=1,74=-5,116=2/1,2,3;
 4//1;
 5/5=2,38=5/2;
 6/7=2,8=2,9=2,10=2,15=8,20=1,22=-1,27=20,28=1,31=1,40=2,96=-1/1,2,7;
 7//1,2,3,16;
 1/6=777,18=20,19=15,26=3/3(2);
 2/9=110/2;
 99//99;
 2/9=110/2;
 3/5=16,7=10,11=2,25=1,30=1,71=1,74=-5,116=2/1,2,3;
 4/5=5,16=3,69=1/1;
 5/5=2,38=5/2;
 7//1,2,3,16;
 1/6=777,18=20,19=15,26=3/3(-5);
 2/9=110/2;
 6/7=2,8=2,9=2,10=2,15=8,19=2,20=1,22=-1,27=20,28=1,31=1,40=2,96=-1/1,2,7;
 99/9=1/99;
 Leave Link    1 at Sun Aug  9 02:32:24 2020, MaxMem=   524288000 cpu:               0.3 elap:               0.0
 (Enter /home/ubuntu/g16/l101.exe)
 ---------------------------
 4-FPhN2+_UB3LYP-aug-cc-pVDZ
 ---------------------------
 Symbolic Z-matrix:
 Charge =  1 Multiplicity = 1
 C                     1.24769  -0.34362   0. 
 C                     1.23665   1.04028   0. 
 C                     0.       -1.00867   0. 
 C                     0.        1.70343   0. 
 C                    -1.24769  -0.34362   0. 
 C                    -1.23665   1.04028   0. 
 N                     0.       -2.3858    0. 
 N                     0.       -3.50124   0. 
 H                     2.16095   1.61587   0. 
 H                    -2.18127  -0.90418   0. 
 H                    -2.16095   1.61587   0. 
 H                     2.18127  -0.90417   0. 
 F                     0.        3.02859   0. 
 
 ITRead=  0  0  0  0  0  0  0  0  0  0  0  0  0
 MicOpt= -1 -1 -1 -1 -1 -1 -1 -1 -1 -1 -1 -1 -1
 NAtoms=     13 NQM=       13 NQMF=       0 NMMI=      0 NMMIF=      0
                NMic=       0 NMicF=      0.
                    Isotopes and Nuclear Properties:
 (Nuclear quadrupole moments (NQMom) in fm**2, nuclear magnetic moments (NMagM)
  in nuclear magnetons)

  Atom         1           2           3           4           5           6           7           8           9          10
 IAtWgt=          12          12          12          12          12          12          14          14           1           1
 AtmWgt=  12.0000000  12.0000000  12.0000000  12.0000000  12.0000000  12.0000000  14.0030740  14.0030740   1.0078250   1.0078250
 NucSpn=           0           0           0           0           0           0           2           2           1           1
 AtZEff=  -0.0000000  -0.0000000  -0.0000000  -0.0000000  -0.0000000  -0.0000000  -0.0000000  -0.0000000  -0.0000000  -0.0000000
 NQMom=    0.0000000   0.0000000   0.0000000   0.0000000   0.0000000   0.0000000   2.0440000   2.0440000   0.0000000   0.0000000
 NMagM=    0.0000000   0.0000000   0.0000000   0.0000000   0.0000000   0.0000000   0.4037610   0.4037610   2.7928460   2.7928460
 AtZNuc=   6.0000000   6.0000000   6.0000000   6.0000000   6.0000000   6.0000000   7.0000000   7.0000000   1.0000000   1.0000000

  Atom        11          12          13
 IAtWgt=           1           1          19
 AtmWgt=   1.0078250   1.0078250  18.9984033
 NucSpn=           1           1           1
 AtZEff=  -0.0000000  -0.0000000  -0.0000000
 NQMom=    0.0000000   0.0000000   0.0000000
 NMagM=    2.7928460   2.7928460   2.6288670
 AtZNuc=   1.0000000   1.0000000   9.0000000
 Leave Link  101 at Sun Aug  9 02:32:24 2020, MaxMem=   524288000 cpu:               1.2 elap:               0.2
 (Enter /home/ubuntu/g16/l103.exe)

 GradGradGradGradGradGradGradGradGradGradGradGradGradGradGradGradGradGrad
 Berny optimization.
 Initialization pass.
                           ----------------------------
                           !    Initial Parameters    !
                           ! (Angstroms and Degrees)  !
 --------------------------                            --------------------------
 ! Name  Definition              Value          Derivative Info.                !
 --------------------------------------------------------------------------------
 ! R1    R(1,2)                  1.3839         estimate D2E/DX2                !
 ! R2    R(1,3)                  1.4139         estimate D2E/DX2                !
 ! R3    R(1,12)                 1.0889         estimate D2E/DX2                !
 ! R4    R(2,4)                  1.4032         estimate D2E/DX2                !
 ! R5    R(2,9)                  1.0889         estimate D2E/DX2                !
 ! R6    R(3,5)                  1.4139         estimate D2E/DX2                !
 ! R7    R(3,7)                  1.3771         estimate D2E/DX2                !
 ! R8    R(4,6)                  1.4032         estimate D2E/DX2                !
 ! R9    R(4,13)                 1.3252         estimate D2E/DX2                !
 ! R10   R(5,6)                  1.3839         estimate D2E/DX2                !
 ! R11   R(5,10)                 1.0889         estimate D2E/DX2                !
 ! R12   R(6,11)                 1.0889         estimate D2E/DX2                !
 ! R13   R(7,8)                  1.1154         estimate D2E/DX2                !
 ! A1    A(2,1,3)              117.6017         estimate D2E/DX2                !
 ! A2    A(2,1,12)             121.439          estimate D2E/DX2                !
 ! A3    A(3,1,12)             120.9594         estimate D2E/DX2                !
 ! A4    A(1,2,4)              118.6594         estimate D2E/DX2                !
 ! A5    A(1,2,9)              121.4547         estimate D2E/DX2                !
 ! A6    A(4,2,9)              119.8859         estimate D2E/DX2                !
 ! A7    A(1,3,5)              123.8825         estimate D2E/DX2                !
 ! A8    A(1,3,7)              118.0587         estimate D2E/DX2                !
 ! A9    A(5,3,7)              118.0587         estimate D2E/DX2                !
 ! A10   A(2,4,6)              123.5954         estimate D2E/DX2                !
 ! A11   A(2,4,13)             118.2023         estimate D2E/DX2                !
 ! A12   A(6,4,13)             118.2023         estimate D2E/DX2                !
 ! A13   A(3,5,6)              117.6017         estimate D2E/DX2                !
 ! A14   A(3,5,10)             120.9589         estimate D2E/DX2                !
 ! A15   A(6,5,10)             121.4394         estimate D2E/DX2                !
 ! A16   A(4,6,5)              118.6594         estimate D2E/DX2                !
 ! A17   A(4,6,11)             119.8859         estimate D2E/DX2                !
 ! A18   A(5,6,11)             121.4547         estimate D2E/DX2                !
 ! A19   L(3,7,8,10,-1)        180.0            estimate D2E/DX2                !
 ! A20   L(3,7,8,10,-2)        180.0            estimate D2E/DX2                !
 ! D1    D(3,1,2,4)              0.0            estimate D2E/DX2                !
 ! D2    D(3,1,2,9)            180.0            estimate D2E/DX2                !
 ! D3    D(12,1,2,4)           180.0            estimate D2E/DX2                !
 ! D4    D(12,1,2,9)             0.0            estimate D2E/DX2                !
 ! D5    D(2,1,3,5)              0.0            estimate D2E/DX2                !
 ! D6    D(2,1,3,7)            180.0            estimate D2E/DX2                !
 ! D7    D(12,1,3,5)           180.0            estimate D2E/DX2                !
 ! D8    D(12,1,3,7)             0.0            estimate D2E/DX2                !
 ! D9    D(1,2,4,6)              0.0            estimate D2E/DX2                !
 ! D10   D(1,2,4,13)           180.0            estimate D2E/DX2                !
 ! D11   D(9,2,4,6)            180.0            estimate D2E/DX2                !
 ! D12   D(9,2,4,13)             0.0            estimate D2E/DX2                !
 ! D13   D(1,3,5,6)              0.0            estimate D2E/DX2                !
 ! D14   D(1,3,5,10)           180.0            estimate D2E/DX2                !
 ! D15   D(7,3,5,6)            180.0            estimate D2E/DX2                !
 ! D16   D(7,3,5,10)             0.0            estimate D2E/DX2                !
 ! D17   D(2,4,6,5)              0.0            estimate D2E/DX2                !
 ! D18   D(2,4,6,11)           180.0            estimate D2E/DX2                !
 ! D19   D(13,4,6,5)           180.0            estimate D2E/DX2                !
 ! D20   D(13,4,6,11)            0.0            estimate D2E/DX2                !
 ! D21   D(3,5,6,4)              0.0            estimate D2E/DX2                !
 ! D22   D(3,5,6,11)           180.0            estimate D2E/DX2                !
 ! D23   D(10,5,6,4)           180.0            estimate D2E/DX2                !
 ! D24   D(10,5,6,11)            0.0            estimate D2E/DX2                !
 --------------------------------------------------------------------------------
 Trust Radius=3.00D-01 FncErr=1.00D-07 GrdErr=1.00D-06 EigMax=2.50D+02 EigMin=1.00D-04
 Number of steps in this run=    100 maximum allowed number of steps=    100.
 GradGradGradGradGradGradGradGradGradGradGradGradGradGradGradGradGradGrad

 Leave Link  103 at Sun Aug  9 02:32:25 2020, MaxMem=   524288000 cpu:               0.1 elap:               0.0
 (Enter /home/ubuntu/g16/l202.exe)
                          Input orientation:                          
 ---------------------------------------------------------------------
 Center     Atomic      Atomic             Coordinates (Angstroms)
 Number     Number       Type             X           Y           Z
 ---------------------------------------------------------------------
      1          6           0        1.247690   -0.343620    0.000000
      2          6           0        1.236650    1.040280    0.000000
      3          6           0        0.000000   -1.008670    0.000000
      4          6           0        0.000000    1.703430    0.000000
      5          6           0       -1.247690   -0.343620    0.000000
      6          6           0       -1.236650    1.040280    0.000000
      7          7           0        0.000000   -2.385800    0.000000
      8          7           0        0.000000   -3.501240    0.000000
      9          1           0        2.160950    1.615870    0.000000
     10          1           0       -2.181270   -0.904180    0.000000
     11          1           0       -2.160950    1.615870    0.000000
     12          1           0        2.181270   -0.904170    0.000000
     13          9           0        0.000000    3.028590    0.000000
 ---------------------------------------------------------------------
                    Distance matrix (angstroms):
                    1          2          3          4          5
     1  C    0.000000
     2  C    1.383944   0.000000
     3  C    1.413868   2.393219   0.000000
     4  C    2.397320   1.403236   2.712100   0.000000
     5  C    2.495380   2.843787   1.413868   2.397320   0.000000
     6  C    2.843787   2.473300   2.393219   1.403236   1.383944
     7  N    2.393163   3.642434   1.377130   4.089230   2.393163
     8  N    3.395187   4.706879   2.492570   5.204670   3.395187
     9  H    2.161861   1.088868   3.399693   2.162723   3.931721
    10  H    3.474478   3.932315   2.183771   3.399642   1.088944
    11  H    3.931721   3.446011   3.399693   2.162723   2.161861
    12  H    1.088939   2.161757   2.183772   3.399635   3.474476
    13  F    3.595627   2.341512   4.037260   1.325160   3.595627
                    6          7          8          9         10
     6  C    0.000000
     7  N    3.642434   0.000000
     8  N    4.706879   1.115440   0.000000
     9  H    3.446011   4.547864   5.554684   0.000000
    10  H    2.161766   2.636880   3.391557   5.020511   0.000000
    11  H    1.088868   4.547864   5.554684   4.321900   2.520132
    12  H    3.932310   2.636886   3.391565   2.520122   4.362540
    13  F    2.341512   5.414390   6.529830   2.581760   4.497179
                   11         12         13
    11  H    0.000000
    12  H    5.020506   0.000000
    13  F    2.581760   4.497170   0.000000
 Stoichiometry    C6H4FN2(1+)
 Framework group  CS[SG(C6H4FN2)]
 Deg. of freedom    23
 Full point group                 CS      NOp   2
 Largest Abelian subgroup         CS      NOp   2
 Largest concise Abelian subgroup C1      NOp   1
                         Standard orientation:                         
 ---------------------------------------------------------------------
 Center     Atomic      Atomic             Coordinates (Angstroms)
 Number     Number       Type             X           Y           Z
 ---------------------------------------------------------------------
      1          6           0        1.247690   -0.343618    0.000000
      2          6           0        1.236650    1.040282    0.000000
      3          6           0        0.000000   -1.008668    0.000000
      4          6           0        0.000000    1.703432    0.000000
      5          6           0       -1.247690   -0.343618    0.000000
      6          6           0       -1.236650    1.040282    0.000000
      7          7           0        0.000000   -2.385798    0.000000
      8          7           0        0.000000   -3.501238    0.000000
      9          1           0        2.160950    1.615872    0.000000
     10          1           0       -2.181270   -0.904178    0.000000
     11          1           0       -2.160950    1.615872    0.000000
     12          1           0        2.181270   -0.904168    0.000000
     13          9           0        0.000000    3.028592    0.000000
 ---------------------------------------------------------------------
 Rotational constants (GHZ):           5.4302336           0.9941540           0.8403117
 Leave Link  202 at Sun Aug  9 02:32:25 2020, MaxMem=   524288000 cpu:               0.0 elap:               0.0
 (Enter /home/ubuntu/g16/l301.exe)
 Standard basis: Aug-CC-pVDZ (5D, 7F)
 Ernie: Thresh=  0.10000D-02 Tol=  0.10000D-05 Strict=F.
 Ernie:  18 primitive shells out of 253 were deleted.
 There are   190 symmetry adapted cartesian basis functions of A'  symmetry.
 There are    71 symmetry adapted cartesian basis functions of A"  symmetry.
 There are   172 symmetry adapted basis functions of A'  symmetry.
 There are    71 symmetry adapted basis functions of A"  symmetry.
   243 basis functions,   431 primitive gaussians,   261 cartesian basis functions
    31 alpha electrons       31 beta electrons
       nuclear repulsion energy       389.3877459615 Hartrees.
 IExCor=  402 DFT=T Ex+Corr=B3LYP ExCW=0 ScaHFX=  0.200000
 ScaDFX=  0.800000  0.720000  1.000000  0.810000 ScalE2=  1.000000  1.000000
 IRadAn=      5 IRanWt=     -1 IRanGd=            0 ICorTp=0 IEmpDi=  4
 NAtoms=   13 NActive=   13 NUniq=   13 SFac= 1.00D+00 NAtFMM=   60 NAOKFM=F Big=F
 Integral buffers will be    131072 words long.
 Raffenetti 2 integral format.
 Two-electron integral symmetry is turned on.
 Leave Link  301 at Sun Aug  9 02:32:25 2020, MaxMem=   524288000 cpu:               0.2 elap:               0.0
 (Enter /home/ubuntu/g16/l302.exe)
 NPDir=0 NMtPBC=     1 NCelOv=     1 NCel=       1 NClECP=     1 NCelD=      1
         NCelK=      1 NCelE2=     1 NClLst=     1 CellRange=     0.0.
 One-electron integrals computed using PRISM.
 One-electron integral symmetry used in STVInt
 NBasis=   243 RedAO= T EigKep=  2.58D-06  NBF=   172    71
 NBsUse=   243 1.00D-06 EigRej= -1.00D+00 NBFU=   172    71
 Precomputing XC quadrature grid using
 IXCGrd= 4 IRadAn=           5 IRanWt=          -1 IRanGd=           0 AccXCQ= 0.00D+00.
 Generated NRdTot=       0 NPtTot=           0 NUsed=           0 NTot=          32
 NSgBfM=   261   260   261   261   261 MxSgAt=    13 MxSgA2=    13.
 Leave Link  302 at Sun Aug  9 02:32:25 2020, MaxMem=   524288000 cpu:               1.9 elap:               0.3
 (Enter /home/ubuntu/g16/l303.exe)
 DipDrv:  MaxL=1.
 Leave Link  303 at Sun Aug  9 02:32:25 2020, MaxMem=   524288000 cpu:               0.3 elap:               0.0
 (Enter /home/ubuntu/g16/l401.exe)
 ExpMin= 2.97D-02 ExpMax= 1.47D+04 ExpMxC= 5.03D+02 IAcc=3 IRadAn=         5 AccDes= 0.00D+00
 Harris functional with IExCor=  402 and IRadAn=       5 diagonalized for initial guess.
 HarFok:  IExCor=  402 AccDes= 0.00D+00 IRadAn=         5 IDoV= 1 UseB2=F ITyADJ=14
 ICtDFT=  3500011 ScaDFX=  1.000000  1.000000  1.000000  1.000000
 FoFCou: FMM=F IPFlag=           0 FMFlag=      100000 FMFlg1=           0
         NFxFlg=           0 DoJE=T BraDBF=F KetDBF=T FulRan=T
         wScrn=  0.000000 ICntrl=       500 IOpCl=  0 I1Cent=   200000004 NGrid=           0
         NMat0=    1 NMatS0=      1 NMatT0=    0 NMatD0=    1 NMtDS0=    0 NMtDT0=    0
 Petite list used in FoFCou.
 Harris En= -440.150969876166    
 JPrj=0 DoOrth=F DoCkMO=F.
 Initial guess orbital symmetries:
 Alpha Orbitals:
       Occupied  (A') (A') (A') (A') (A') (A') (A') (A') (A') (A')
                 (A') (A') (A') (A') (A') (A') (A') (A') (A') (A')
                 (A') (A') (A") (A") (A') (A') (A') (A') (A") (A")
                 (A")
       Virtual   (A") (A") (A') (A") (A') (A') (A') (A') (A') (A")
                 (A') (A") (A') (A") (A') (A") (A') (A') (A') (A')
                 (A') (A') (A') (A') (A") (A") (A') (A') (A") (A')
                 (A') (A') (A") (A') (A') (A') (A") (A') (A') (A')
                 (A') (A') (A') (A') (A') (A") (A') (A') (A') (A')
                 (A') (A") (A") (A') (A') (A') (A") (A') (A") (A')
                 (A') (A') (A") (A") (A') (A") (A') (A') (A') (A")
                 (A') (A') (A') (A") (A') (A') (A") (A') (A") (A")
                 (A') (A') (A') (A') (A') (A') (A') (A') (A") (A")
                 (A') (A') (A') (A") (A') (A") (A") (A") (A') (A')
                 (A") (A") (A') (A') (A') (A") (A') (A") (A') (A')
                 (A") (A") (A') (A') (A') (A") (A') (A') (A') (A')
                 (A") (A') (A") (A") (A') (A') (A') (A") (A') (A")
                 (A') (A') (A") (A') (A') (A") (A') (A') (A") (A")
                 (A') (A') (A") (A') (A") (A') (A') (A") (A') (A')
                 (A') (A') (A') (A") (A') (A') (A") (A') (A') (A")
                 (A") (A') (A') (A") (A") (A') (A') (A') (A') (A')
                 (A") (A") (A') (A') (A') (A") (A') (A") (A") (A')
                 (A') (A") (A') (A') (A') (A') (A') (A") (A') (A')
                 (A') (A') (A') (A') (A') (A') (A') (A") (A') (A')
                 (A') (A') (A') (A') (A') (A') (A') (A') (A") (A")
                 (A') (A')
 Beta  Orbitals:
       Occupied  (A') (A') (A') (A') (A') (A') (A') (A') (A') (A')
                 (A') (A') (A') (A') (A') (A') (A') (A') (A') (A')
                 (A') (A') (A") (A") (A') (A') (A') (A') (A") (A")
                 (A")
       Virtual   (A") (A") (A') (A") (A') (A') (A') (A') (A') (A")
                 (A') (A") (A') (A") (A') (A") (A') (A') (A') (A')
                 (A') (A') (A') (A') (A") (A") (A') (A') (A") (A')
                 (A') (A') (A") (A') (A') (A') (A") (A') (A') (A')
                 (A') (A') (A') (A') (A') (A") (A') (A') (A') (A')
                 (A') (A") (A") (A') (A') (A') (A") (A') (A") (A')
                 (A') (A') (A") (A") (A') (A") (A') (A') (A') (A")
                 (A') (A') (A') (A") (A') (A') (A") (A') (A") (A")
                 (A') (A') (A') (A') (A') (A') (A') (A') (A") (A")
                 (A') (A') (A') (A") (A') (A") (A") (A") (A') (A')
                 (A") (A") (A') (A') (A') (A") (A') (A") (A') (A')
                 (A") (A") (A') (A') (A') (A") (A') (A') (A') (A')
                 (A") (A') (A") (A") (A') (A') (A') (A") (A') (A")
                 (A') (A') (A") (A') (A') (A") (A') (A') (A") (A")
                 (A') (A') (A") (A') (A") (A') (A') (A") (A') (A')
                 (A') (A') (A') (A") (A') (A') (A") (A') (A') (A")
                 (A") (A') (A') (A") (A") (A') (A') (A') (A') (A')
                 (A") (A") (A') (A') (A') (A") (A') (A") (A") (A')
                 (A') (A") (A') (A') (A') (A') (A') (A") (A') (A')
                 (A') (A') (A') (A') (A') (A') (A') (A") (A') (A')
                 (A') (A') (A') (A') (A') (A') (A') (A') (A") (A")
                 (A') (A')
 The electronic state of the initial guess is 1-A'.
 Initial guess <Sx>= 0.0000 <Sy>= 0.0000 <Sz>= 0.0000 <S**2>= 0.0000 S= 0.0000
 Leave Link  401 at Sun Aug  9 02:32:26 2020, MaxMem=   524288000 cpu:               8.7 elap:               1.2
 (Enter /home/ubuntu/g16/l502.exe)
 Integral symmetry usage will be decided dynamically.
 UHF open shell SCF:
 Using DIIS extrapolation, IDIIS=  1040.
 NGot=   524288000 LenX=   524146863 LenY=   524078301
 Requested convergence on RMS density matrix=1.00D-08 within 128 cycles.
 Requested convergence on MAX density matrix=1.00D-06.
 Requested convergence on             energy=1.00D-06.
 No special actions if energy rises.
 Fock matrices will be formed incrementally for  20 cycles.

 Cycle   1  Pass 1  IDiag  1:
 FoFJK:  IHMeth= 1 ICntrl=       0 DoSepK=F KAlg= 0 I1Cent=           0 FoldK=F
 IRaf= 980000000 NMat=       1 IRICut=       1 DoRegI=T DoRafI=F ISym2E= 1 IDoP0=0 IntGTp=1.
 FoFCou: FMM=F IPFlag=           0 FMFlag=      100000 FMFlg1=           0
         NFxFlg=           0 DoJE=F BraDBF=F KetDBF=F FulRan=T
         wScrn=  0.000000 ICntrl=         0 IOpCl=  1 I1Cent=           0 NGrid=           0
         NMat0=    1 NMatS0=      1 NMatT0=    0 NMatD0=    1 NMtDS0=    0 NMtDT0=    0
 Petite list used in FoFCou.
 E= -439.969523589977    
 DIIS: error= 2.75D-02 at cycle   1 NSaved=   1.
 NSaved= 1 IEnMin= 1 EnMin= -439.969523589977     IErMin= 1 ErrMin= 2.75D-02
 ErrMax= 2.75D-02  0.00D+00 EMaxC= 1.00D-01 BMatC= 5.59D-01 BMatP= 5.59D-01
 IDIUse=3 WtCom= 7.25D-01 WtEn= 2.75D-01
 Coeff-Com:  0.100D+01
 Coeff-En:   0.100D+01
 Coeff:      0.100D+01
 Gap=    -0.067 Goal=   None    Shift=    0.000
 Gap=    -0.067 Goal=   None    Shift=    0.000
 GapD=   -0.067 DampG=0.250 DampE=0.500 DampFc=0.2500 IDamp=-1.
 Damping current iteration by 2.50D-01
 RMSDP=4.60D-02 MaxDP=2.87D+00              OVMax= 8.08D-01

 Cycle   2  Pass 1  IDiag  1:
 RMSU=  4.68D-03    CP:  9.09D-01
 E= -439.884869554415     Delta-E=        0.084654035562 Rises=F Damp=T
 DIIS: error= 1.31D-02 at cycle   2 NSaved=   2.
 NSaved= 2 IEnMin= 1 EnMin= -439.969523589977     IErMin= 2 ErrMin= 1.31D-02
 ErrMax= 1.31D-02  0.00D+00 EMaxC= 1.00D-01 BMatC= 1.53D-01 BMatP= 5.59D-01
 IDIUse=3 WtCom= 8.69D-01 WtEn= 1.31D-01
 Coeff-Com:  0.134D+00 0.866D+00
 Coeff-En:   0.718D+00 0.282D+00
 Coeff:      0.210D+00 0.790D+00
 Gap=     0.174 Goal=   None    Shift=    0.000
 Gap=     0.174 Goal=   None    Shift=    0.000
 RMSDP=3.58D-02 MaxDP=2.45D+00 DE= 8.47D-02 OVMax= 6.20D-01

 Cycle   3  Pass 1  IDiag  1:
 RMSU=  8.06D-03    CP:  6.11D-01  2.47D+00
 E= -440.001280718251     Delta-E=       -0.116411163836 Rises=F Damp=F
 DIIS: error= 2.50D-02 at cycle   3 NSaved=   3.
 NSaved= 3 IEnMin= 3 EnMin= -440.001280718251     IErMin= 2 ErrMin= 1.31D-02
 ErrMax= 2.50D-02  0.00D+00 EMaxC= 1.00D-01 BMatC= 4.40D-01 BMatP= 1.53D-01
 IDIUse=2 WtCom= 0.00D+00 WtEn= 1.00D+00
 EnCoef did     1 forward-backward iterations
 Coeff-En:   0.267D+00 0.164D+00 0.568D+00
 Coeff:      0.267D+00 0.164D+00 0.568D+00
 Gap=     0.070 Goal=   None    Shift=    0.000
 Gap=     0.070 Goal=   None    Shift=    0.000
 RMSDP=7.70D-03 MaxDP=3.93D-01 DE=-1.16D-01 OVMax= 4.65D-01

 Cycle   4  Pass 1  IDiag  1:
 RMSU=  5.22D-03    CP:  6.41D-01  2.72D+00  4.65D-01
 E= -439.817042997483     Delta-E=        0.184237720768 Rises=F Damp=F
 DIIS: error= 4.38D-02 at cycle   4 NSaved=   4.
 NSaved= 4 IEnMin= 3 EnMin= -440.001280718251     IErMin= 2 ErrMin= 1.31D-02
 ErrMax= 4.38D-02  0.00D+00 EMaxC= 1.00D-01 BMatC= 1.11D+00 BMatP= 1.53D-01
 IDIUse=2 WtCom= 0.00D+00 WtEn= 1.00D+00
 EnCoef did     2 forward-backward iterations
 Coeff-En:   0.772D-01 0.000D+00 0.602D+00 0.321D+00
 Coeff:      0.772D-01 0.000D+00 0.602D+00 0.321D+00
 Gap=     0.161 Goal=   None    Shift=    0.000
 DSYEVD-2 returned Info=        2663 IAlg= 4 N=    71 NDim=   243 NE2=     2156699 trying  DSYEV.
 Gap=     0.161 Goal=   None    Shift=    0.000
 DSYEVD-2 returned Info=        2663 IAlg= 4 N=    71 NDim=   243 NE2=     2156699 trying  DSYEV.
 RMSDP=4.43D-03 MaxDP=1.33D-01 DE= 1.84D-01 OVMax= 3.27D-01

 Cycle   5  Pass 1  IDiag  1:
 RMSU=  2.05D-03    CP:  6.42D-01  2.18D+00  7.47D-01  6.21D-01
 E= -440.115108667346     Delta-E=       -0.298065669863 Rises=F Damp=F
 DIIS: error= 1.06D-02 at cycle   5 NSaved=   5.
 NSaved= 5 IEnMin= 5 EnMin= -440.115108667346     IErMin= 5 ErrMin= 1.06D-02
 ErrMax= 1.06D-02  0.00D+00 EMaxC= 1.00D-01 BMatC= 5.61D-02 BMatP= 1.53D-01
 IDIUse=3 WtCom= 8.94D-01 WtEn= 1.06D-01
 Coeff-Com: -0.131D+00 0.199D+00 0.246D+00-0.390D-01 0.724D+00
 Coeff-En:   0.000D+00 0.000D+00 0.745D-01 0.000D+00 0.925D+00
 Coeff:     -0.117D+00 0.178D+00 0.228D+00-0.348D-01 0.746D+00
 Gap=     0.170 Goal=   None    Shift=    0.000
 Gap=     0.170 Goal=   None    Shift=    0.000
 RMSDP=1.76D-03 MaxDP=7.34D-02 DE=-2.98D-01 OVMax= 7.04D-02

 Cycle   6  Pass 1  IDiag  1:
 RMSU=  6.92D-04    CP:  6.34D-01  2.28D+00  8.10D-01  4.41D-01  7.32D-01
 E= -440.123892932402     Delta-E=       -0.008784265056 Rises=F Damp=F
 DIIS: error= 3.83D-03 at cycle   6 NSaved=   6.
 NSaved= 6 IEnMin= 6 EnMin= -440.123892932402     IErMin= 6 ErrMin= 3.83D-03
 ErrMax= 3.83D-03  0.00D+00 EMaxC= 1.00D-01 BMatC= 9.76D-03 BMatP= 5.61D-02
 IDIUse=3 WtCom= 9.62D-01 WtEn= 3.83D-02
 Coeff-Com: -0.104D+00 0.123D+00 0.741D-01-0.295D-01 0.423D+00 0.514D+00
 Coeff-En:   0.000D+00 0.000D+00 0.000D+00 0.000D+00 0.202D+00 0.798D+00
 Coeff:     -0.100D+00 0.118D+00 0.712D-01-0.284D-01 0.415D+00 0.525D+00
 Gap=     0.171 Goal=   None    Shift=    0.000
 Gap=     0.171 Goal=   None    Shift=    0.000
 RMSDP=4.51D-04 MaxDP=1.68D-02 DE=-8.78D-03 OVMax= 1.32D-02

 Cycle   7  Pass 1  IDiag  1:
 RMSU=  2.83D-04    CP:  6.35D-01  2.31D+00  7.92D-01  4.58D-01  7.90D-01
                    CP:  6.75D-01
 E= -440.126155650144     Delta-E=       -0.002262717742 Rises=F Damp=F
 DIIS: error= 2.05D-03 at cycle   7 NSaved=   7.
 NSaved= 7 IEnMin= 7 EnMin= -440.126155650144     IErMin= 7 ErrMin= 2.05D-03
 ErrMax= 2.05D-03  0.00D+00 EMaxC= 1.00D-01 BMatC= 2.07D-03 BMatP= 9.76D-03
 IDIUse=3 WtCom= 9.79D-01 WtEn= 2.05D-02
 Coeff-Com: -0.680D-01 0.888D-01 0.988D-02-0.118D-01 0.155D+00 0.297D+00
 Coeff-Com:  0.528D+00
 Coeff-En:   0.000D+00 0.000D+00 0.000D+00 0.000D+00 0.000D+00 0.000D+00
 Coeff-En:   0.100D+01
 Coeff:     -0.666D-01 0.870D-01 0.967D-02-0.116D-01 0.152D+00 0.291D+00
 Coeff:      0.538D+00
 Gap=     0.169 Goal=   None    Shift=    0.000
 DSYEVD-2 returned Info=        2663 IAlg= 4 N=    71 NDim=   243 NE2=     2156699 trying  DSYEV.
 Gap=     0.169 Goal=   None    Shift=    0.000
 DSYEVD-2 returned Info=        2663 IAlg= 4 N=    71 NDim=   243 NE2=     2156699 trying  DSYEV.
 RMSDP=1.61D-04 MaxDP=5.08D-03 DE=-2.26D-03 OVMax= 8.11D-03

 Cycle   8  Pass 1  IDiag  1:
 RMSU=  1.27D-04    CP:  6.35D-01  2.31D+00  7.86D-01  4.67D-01  8.19D-01
                    CP:  6.87D-01  8.87D-01
 E= -440.126523941231     Delta-E=       -0.000368291087 Rises=F Damp=F
 DIIS: error= 1.37D-03 at cycle   8 NSaved=   8.
 NSaved= 8 IEnMin= 8 EnMin= -440.126523941231     IErMin= 8 ErrMin= 1.37D-03
 ErrMax= 1.37D-03  0.00D+00 EMaxC= 1.00D-01 BMatC= 1.17D-03 BMatP= 2.07D-03
 IDIUse=3 WtCom= 9.86D-01 WtEn= 1.37D-02
 Coeff-Com: -0.253D-01 0.360D-01-0.302D-01 0.958D-02-0.569D-01 0.113D-01
 Coeff-Com:  0.350D+00 0.706D+00
 Coeff-En:   0.000D+00 0.000D+00 0.000D+00 0.000D+00 0.000D+00 0.000D+00
 Coeff-En:   0.000D+00 0.100D+01
 Coeff:     -0.250D-01 0.355D-01-0.298D-01 0.945D-02-0.561D-01 0.112D-01
 Coeff:      0.345D+00 0.710D+00
 Gap=     0.168 Goal=   None    Shift=    0.000
 Gap=     0.168 Goal=   None    Shift=    0.000
 RMSDP=1.75D-04 MaxDP=4.74D-03 DE=-3.68D-04 OVMax= 7.07D-03

 Cycle   9  Pass 1  IDiag  1:
 RMSU=  7.65D-05    CP:  6.36D-01  2.32D+00  7.80D-01  4.72D-01  8.33D-01
                    CP:  7.57D-01  1.12D+00  8.56D-01
 E= -440.126851695641     Delta-E=       -0.000327754410 Rises=F Damp=F
 DIIS: error= 5.81D-04 at cycle   9 NSaved=   9.
 NSaved= 9 IEnMin= 9 EnMin= -440.126851695641     IErMin= 9 ErrMin= 5.81D-04
 ErrMax= 5.81D-04  0.00D+00 EMaxC= 1.00D-01 BMatC= 2.12D-04 BMatP= 1.17D-03
 IDIUse=3 WtCom= 9.94D-01 WtEn= 5.81D-03
 Coeff-Com: -0.432D-02 0.538D-02-0.155D-01 0.890D-02-0.479D-01-0.602D-01
 Coeff-Com: -0.938D-02 0.240D+00 0.883D+00
 Coeff-En:   0.000D+00 0.000D+00 0.000D+00 0.000D+00 0.000D+00 0.000D+00
 Coeff-En:   0.000D+00 0.000D+00 0.100D+01
 Coeff:     -0.430D-02 0.535D-02-0.154D-01 0.885D-02-0.476D-01-0.599D-01
 Coeff:     -0.932D-02 0.239D+00 0.884D+00
 Gap=     0.167 Goal=   None    Shift=    0.000
 Gap=     0.167 Goal=   None    Shift=    0.000
 RMSDP=9.46D-05 MaxDP=3.41D-03 DE=-3.28D-04 OVMax= 5.79D-03

 Cycle  10  Pass 1  IDiag  1:
 RMSU=  2.80D-05    CP:  6.36D-01  2.33D+00  7.73D-01  4.76D-01  8.39D-01
                    CP:  7.78D-01  1.23D+00  1.13D+00  1.09D+00
 E= -440.126929346007     Delta-E=       -0.000077650365 Rises=F Damp=F
 DIIS: error= 8.00D-05 at cycle  10 NSaved=  10.
 NSaved=10 IEnMin=10 EnMin= -440.126929346007     IErMin=10 ErrMin= 8.00D-05
 ErrMax= 8.00D-05  0.00D+00 EMaxC= 1.00D-01 BMatC= 5.59D-06 BMatP= 2.12D-04
 IDIUse=1 WtCom= 1.00D+00 WtEn= 0.00D+00
 Coeff-Com:  0.223D-03 0.104D-03 0.254D-03 0.453D-03-0.943D-03-0.159D-01
 Coeff-Com: -0.471D-01-0.675D-01 0.277D+00 0.853D+00
 Coeff:      0.223D-03 0.104D-03 0.254D-03 0.453D-03-0.943D-03-0.159D-01
 Coeff:     -0.471D-01-0.675D-01 0.277D+00 0.853D+00
 Gap=     0.167 Goal=   None    Shift=    0.000
 Gap=     0.167 Goal=   None    Shift=    0.000
 RMSDP=1.58D-05 MaxDP=5.10D-04 DE=-7.77D-05 OVMax= 1.12D-03

 Cycle  11  Pass 1  IDiag  1:
 RMSU=  6.53D-06    CP:  6.36D-01  2.33D+00  7.73D-01  4.77D-01  8.40D-01
                    CP:  7.77D-01  1.24D+00  1.09D+00  1.19D+00  9.36D-01
 E= -440.126931215763     Delta-E=       -0.000001869756 Rises=F Damp=F
 DIIS: error= 2.09D-05 at cycle  11 NSaved=  11.
 NSaved=11 IEnMin=11 EnMin= -440.126931215763     IErMin=11 ErrMin= 2.09D-05
 ErrMax= 2.09D-05  0.00D+00 EMaxC= 1.00D-01 BMatC= 4.22D-07 BMatP= 5.59D-06
 IDIUse=1 WtCom= 1.00D+00 WtEn= 0.00D+00
 Coeff-Com:  0.156D-04 0.110D-03 0.136D-02-0.303D-03 0.359D-02-0.402D-02
 Coeff-Com: -0.247D-01-0.532D-01 0.111D+00 0.484D+00 0.482D+00
 Coeff:      0.156D-04 0.110D-03 0.136D-02-0.303D-03 0.359D-02-0.402D-02
 Coeff:     -0.247D-01-0.532D-01 0.111D+00 0.484D+00 0.482D+00
 Gap=     0.167 Goal=   None    Shift=    0.000
 Gap=     0.167 Goal=   None    Shift=    0.000
 RMSDP=4.90D-06 MaxDP=2.18D-04 DE=-1.87D-06 OVMax= 1.01D-04

 Cycle  12  Pass 1  IDiag  1:
 RMSU=  3.51D-06    CP:  6.36D-01  2.33D+00  7.73D-01  4.77D-01  8.40D-01
                    CP:  7.78D-01  1.24D+00  1.10D+00  1.19D+00  9.56D-01
                    CP:  6.63D-01
 E= -440.126931309403     Delta-E=       -0.000000093641 Rises=F Damp=F
 DIIS: error= 4.89D-06 at cycle  12 NSaved=  12.
 NSaved=12 IEnMin=12 EnMin= -440.126931309403     IErMin=12 ErrMin= 4.89D-06
 ErrMax= 4.89D-06  0.00D+00 EMaxC= 1.00D-01 BMatC= 2.71D-08 BMatP= 4.22D-07
 IDIUse=1 WtCom= 1.00D+00 WtEn= 0.00D+00
 Coeff-Com: -0.200D-04 0.523D-04 0.431D-03-0.167D-03 0.922D-03 0.154D-03
 Coeff-Com: -0.218D-02-0.923D-02 0.877D-02 0.492D-01 0.120D+00 0.832D+00
 Coeff:     -0.200D-04 0.523D-04 0.431D-03-0.167D-03 0.922D-03 0.154D-03
 Coeff:     -0.218D-02-0.923D-02 0.877D-02 0.492D-01 0.120D+00 0.832D+00
 Gap=     0.167 Goal=   None    Shift=    0.000
 Gap=     0.167 Goal=   None    Shift=    0.000
 RMSDP=1.04D-06 MaxDP=3.32D-05 DE=-9.36D-08 OVMax= 2.54D-05

 Cycle  13  Pass 1  IDiag  1:
 RMSU=  7.00D-07    CP:  6.36D-01  2.33D+00  7.73D-01  4.77D-01  8.40D-01
                    CP:  7.77D-01  1.24D+00  1.10D+00  1.19D+00  9.61D-01
                    CP:  6.96D-01  9.45D-01
 E= -440.126931316354     Delta-E=       -0.000000006951 Rises=F Damp=F
 DIIS: error= 1.12D-06 at cycle  13 NSaved=  13.
 NSaved=13 IEnMin=13 EnMin= -440.126931316354     IErMin=13 ErrMin= 1.12D-06
 ErrMax= 1.12D-06  0.00D+00 EMaxC= 1.00D-01 BMatC= 1.77D-09 BMatP= 2.71D-08
 IDIUse=1 WtCom= 1.00D+00 WtEn= 0.00D+00
 Coeff-Com: -0.504D-05 0.869D-05 0.769D-04-0.433D-04 0.620D-04 0.334D-03
 Coeff-Com:  0.757D-03-0.136D-03-0.312D-02-0.146D-01 0.786D-02 0.287D+00
 Coeff-Com:  0.721D+00
 Coeff:     -0.504D-05 0.869D-05 0.769D-04-0.433D-04 0.620D-04 0.334D-03
 Coeff:      0.757D-03-0.136D-03-0.312D-02-0.146D-01 0.786D-02 0.287D+00
 Coeff:      0.721D+00
 Gap=     0.167 Goal=   None    Shift=    0.000
 Gap=     0.167 Goal=   None    Shift=    0.000
 RMSDP=3.83D-07 MaxDP=1.31D-05 DE=-6.95D-09 OVMax= 5.81D-06

 Cycle  14  Pass 1  IDiag  1:
 RMSU=  2.00D-07    CP:  6.36D-01  2.33D+00  7.73D-01  4.77D-01  8.40D-01
                    CP:  7.78D-01  1.24D+00  1.10D+00  1.19D+00  9.64D-01
                    CP:  7.11D-01  9.58D-01  9.71D-01
 E= -440.126931316702     Delta-E=       -0.000000000348 Rises=F Damp=F
 DIIS: error= 6.77D-07 at cycle  14 NSaved=  14.
 NSaved=14 IEnMin=14 EnMin= -440.126931316702     IErMin=14 ErrMin= 6.77D-07
 ErrMax= 6.77D-07  0.00D+00 EMaxC= 1.00D-01 BMatC= 4.73D-10 BMatP= 1.77D-09
 IDIUse=1 WtCom= 1.00D+00 WtEn= 0.00D+00
 Coeff-Com: -0.211D-05-0.158D-05 0.185D-05-0.746D-05-0.467D-04 0.225D-03
 Coeff-Com:  0.653D-03 0.787D-03-0.264D-02-0.132D-01-0.104D-01 0.550D-01
 Coeff-Com:  0.460D+00 0.509D+00
 Coeff:     -0.211D-05-0.158D-05 0.185D-05-0.746D-05-0.467D-04 0.225D-03
 Coeff:      0.653D-03 0.787D-03-0.264D-02-0.132D-01-0.104D-01 0.550D-01
 Coeff:      0.460D+00 0.509D+00
 Gap=     0.167 Goal=   None    Shift=    0.000
 Gap=     0.167 Goal=   None    Shift=    0.000
 RMSDP=1.08D-07 MaxDP=5.84D-06 DE=-3.48D-10 OVMax= 2.38D-06

 Cycle  15  Pass 1  IDiag  1:
 RMSU=  6.84D-08    CP:  6.36D-01  2.33D+00  7.73D-01  4.77D-01  8.40D-01
                    CP:  7.78D-01  1.24D+00  1.10D+00  1.19D+00  9.64D-01
                    CP:  7.11D-01  9.71D-01  9.50D-01  8.39D-01
 E= -440.126931316779     Delta-E=       -0.000000000077 Rises=F Damp=F
 DIIS: error= 1.05D-07 at cycle  15 NSaved=  15.
 NSaved=15 IEnMin=15 EnMin= -440.126931316779     IErMin=15 ErrMin= 1.05D-07
 ErrMax= 1.05D-07  0.00D+00 EMaxC= 1.00D-01 BMatC= 1.12D-11 BMatP= 4.73D-10
 IDIUse=1 WtCom= 1.00D+00 WtEn= 0.00D+00
 Coeff-Com: -0.525D-06 0.768D-06-0.380D-05 0.290D-06-0.811D-05 0.263D-04
 Coeff-Com:  0.571D-04 0.917D-04-0.114D-03-0.104D-02-0.225D-02-0.978D-02
 Coeff-Com:  0.159D-01 0.710D-01 0.926D+00
 Coeff:     -0.525D-06 0.768D-06-0.380D-05 0.290D-06-0.811D-05 0.263D-04
 Coeff:      0.571D-04 0.917D-04-0.114D-03-0.104D-02-0.225D-02-0.978D-02
 Coeff:      0.159D-01 0.710D-01 0.926D+00
 Gap=     0.167 Goal=   None    Shift=    0.000
 Gap=     0.167 Goal=   None    Shift=    0.000
 RMSDP=3.13D-08 MaxDP=7.17D-07 DE=-7.70D-11 OVMax= 1.05D-06

 Cycle  16  Pass 1  IDiag  1:
 RMSU=  1.05D-08    CP:  6.36D-01  2.33D+00  7.73D-01  4.77D-01  8.40D-01
                    CP:  7.78D-01  1.24D+00  1.10D+00  1.19D+00  9.64D-01
                    CP:  7.11D-01  9.74D-01  9.60D-01  8.42D-01  9.92D-01
 E= -440.126931316785     Delta-E=       -0.000000000006 Rises=F Damp=F
 DIIS: error= 3.32D-08 at cycle  16 NSaved=  16.
 NSaved=16 IEnMin=16 EnMin= -440.126931316785     IErMin=16 ErrMin= 3.32D-08
 ErrMax= 3.32D-08  0.00D+00 EMaxC= 1.00D-01 BMatC= 6.00D-13 BMatP= 1.12D-11
 IDIUse=1 WtCom= 1.00D+00 WtEn= 0.00D+00
 Coeff-Com: -0.793D-07 0.127D-06-0.538D-06 0.159D-06 0.168D-05-0.124D-05
 Coeff-Com: -0.931D-05-0.423D-04 0.737D-04 0.312D-03-0.643D-04-0.247D-02
 Coeff-Com: -0.146D-01-0.453D-02 0.136D+00 0.886D+00
 Coeff:     -0.793D-07 0.127D-06-0.538D-06 0.159D-06 0.168D-05-0.124D-05
 Coeff:     -0.931D-05-0.423D-04 0.737D-04 0.312D-03-0.643D-04-0.247D-02
 Coeff:     -0.146D-01-0.453D-02 0.136D+00 0.886D+00
 Gap=     0.167 Goal=   None    Shift=    0.000
 Gap=     0.167 Goal=   None    Shift=    0.000
 RMSDP=5.16D-09 MaxDP=1.93D-07 DE=-5.80D-12 OVMax= 1.83D-07

 SCF Done:  E(UB3LYP) =  -440.126931317     A.U. after   16 cycles
            NFock= 16  Conv=0.52D-08     -V/T= 2.0062
 <Sx>= 0.0000 <Sy>= 0.0000 <Sz>= 0.0000 <S**2>=-0.0000 S=-0.0000
 <L.S>= 0.000000000000E+00
 KE= 4.374044902573D+02 PE=-1.794096568865D+03 EE= 5.271774013294D+02
 Annihilation of the first spin contaminant:
 S**2 before annihilation    -0.0000,   after    -0.0000
 Leave Link  502 at Sun Aug  9 02:34:08 2020, MaxMem=   524288000 cpu:             710.1 elap:             101.5
 (Enter /home/ubuntu/g16/l601.exe)
 Copying SCF densities to generalized density rwf, IOpCl= 1 IROHF=0.

 **********************************************************************

            Population analysis using the SCF density.

 **********************************************************************

 Orbital symmetries:
 Alpha Orbitals:
       Occupied  (A') (A') (A') (A') (A') (A') (A') (A') (A') (A')
                 (A') (A') (A') (A') (A') (A') (A') (A') (A') (A")
                 (A') (A') (A") (A') (A') (A') (A') (A") (A') (A")
                 (A")
       Virtual   (A") (A') (A") (A") (A') (A') (A') (A') (A") (A')
                 (A') (A") (A') (A") (A') (A") (A') (A') (A') (A')
                 (A') (A') (A") (A") (A') (A') (A') (A') (A") (A')
                 (A') (A') (A") (A") (A') (A') (A') (A') (A') (A')
                 (A') (A') (A') (A') (A") (A') (A') (A') (A") (A')
                 (A') (A") (A") (A') (A') (A') (A') (A") (A') (A')
                 (A') (A') (A") (A") (A") (A') (A') (A') (A") (A')
                 (A') (A") (A') (A") (A') (A') (A') (A") (A") (A')
                 (A') (A') (A') (A') (A') (A') (A') (A") (A') (A')
                 (A") (A") (A') (A') (A") (A") (A') (A') (A") (A')
                 (A") (A") (A') (A') (A') (A") (A") (A') (A") (A')
                 (A') (A") (A') (A') (A') (A") (A') (A') (A") (A')
                 (A') (A') (A") (A") (A') (A') (A") (A') (A") (A')
                 (A') (A") (A') (A') (A') (A") (A') (A") (A") (A')
                 (A') (A') (A") (A') (A") (A') (A') (A') (A') (A')
                 (A") (A') (A') (A") (A') (A') (A") (A') (A") (A')
                 (A") (A') (A") (A') (A") (A') (A') (A') (A') (A")
                 (A') (A") (A') (A') (A") (A") (A') (A') (A') (A")
                 (A') (A') (A") (A') (A") (A') (A') (A') (A') (A')
                 (A') (A') (A') (A') (A') (A") (A') (A') (A') (A')
                 (A') (A') (A') (A') (A') (A') (A') (A') (A") (A")
                 (A') (A')
 Beta  Orbitals:
       Occupied  (A') (A') (A') (A') (A') (A') (A') (A') (A') (A')
                 (A') (A') (A') (A') (A') (A') (A') (A') (A') (A")
                 (A') (A') (A") (A') (A') (A') (A') (A") (A') (A")
                 (A")
       Virtual   (A") (A') (A") (A") (A') (A') (A') (A') (A") (A')
                 (A') (A") (A') (A") (A') (A") (A') (A') (A') (A')
                 (A') (A') (A") (A") (A') (A') (A') (A') (A") (A')
                 (A') (A') (A") (A") (A') (A') (A') (A') (A') (A')
                 (A') (A') (A') (A') (A") (A') (A') (A') (A") (A')
                 (A') (A") (A") (A') (A') (A') (A') (A") (A') (A')
                 (A') (A') (A") (A") (A") (A') (A') (A') (A") (A')
                 (A') (A") (A') (A") (A') (A') (A') (A") (A") (A')
                 (A') (A') (A') (A') (A') (A') (A') (A") (A') (A')
                 (A") (A") (A') (A') (A") (A") (A') (A') (A") (A')
                 (A") (A") (A') (A') (A') (A") (A") (A') (A") (A')
                 (A') (A") (A') (A') (A') (A") (A') (A') (A") (A')
                 (A') (A') (A") (A") (A') (A') (A") (A') (A") (A')
                 (A') (A") (A') (A') (A') (A") (A') (A") (A") (A')
                 (A') (A') (A") (A') (A") (A') (A') (A') (A') (A')
                 (A") (A') (A') (A") (A') (A') (A") (A') (A") (A')
                 (A") (A') (A") (A') (A") (A') (A') (A') (A') (A")
                 (A') (A") (A') (A') (A") (A") (A') (A') (A') (A")
                 (A') (A') (A") (A') (A") (A') (A') (A') (A') (A')
                 (A') (A') (A') (A') (A') (A") (A') (A') (A') (A')
                 (A') (A') (A') (A') (A') (A') (A') (A') (A") (A")
                 (A') (A')
 The electronic state is 1-A'.
     Natural Orbital Coefficients:
                           1         2         3         4         5
     Eigenvalues --     2.00000   2.00000   2.00000   2.00000   2.00000
   1 1   C  1S         -0.00682  -0.09658   0.01245   0.01709   0.03154
   2        2S         -0.15760   0.02065   0.00056   0.00504  -0.04339
   3        3S         -0.19306   0.16492  -0.24470  -0.13900  -0.22302
   4        4S          1.46080  -0.02063  -0.32792   0.11773  -0.05081
   5        5PX        -0.24874  -0.14164   0.17891   0.04175   0.02037
   6        5PY        -0.02808  -0.22743  -0.17940  -0.01278  -0.01494
   7        5PZ         0.00000   0.00000   0.00000   0.00000   0.00000
   8        6PX         0.10197  -0.09764   0.04081   0.06579   0.03027
   9        6PY        -0.18426  -0.05065   0.12673  -0.01747   0.00792
  10        6PZ         0.00000   0.00000   0.00000   0.00000   0.00000
  11        7PX        -0.25438   0.03837   0.06117  -0.06483   0.04903
  12        7PY        -0.00910   0.09443   0.01661   0.02121  -0.01075
  13        7PZ         0.00000   0.00000   0.00000   0.00000   0.00000
  14        8D 0       -0.00143   0.00085   0.00029  -0.00250   0.00103
  15        8D+1        0.00000   0.00000   0.00000   0.00000   0.00000
  16        8D-1        0.00000   0.00000   0.00000   0.00000   0.00000
  17        8D+2        0.00351   0.01433   0.00437   0.00044  -0.00706
  18        8D-2        0.01726   0.00816  -0.00460   0.00486   0.00340
  19        9D 0       -0.00762   0.00029  -0.00695  -0.00151  -0.00060
  20        9D+1        0.00000   0.00000   0.00000   0.00000   0.00000
  21        9D-1        0.00000   0.00000   0.00000   0.00000   0.00000
  22        9D+2        0.01948  -0.02390  -0.06756  -0.04119   0.01573
  23        9D-2       -0.11995   0.00433   0.00708   0.00188  -0.03205
  24 2   C  1S         -0.17364   0.11557  -0.06584  -0.43008  -0.14563
  25        2S          0.13332  -0.23276  -0.00267   0.03708   0.04916
  26        3S          0.24954  -0.44277  -0.12663   0.00685   0.00069
  27        4S         -1.30416   0.28634   0.10204  -0.23522   0.05367
  28        5PX         0.04081  -0.05485   0.04296   0.13292  -0.00009
  29        5PY         0.22387   0.05887   0.16014   0.05065   0.07464
  30        5PZ         0.00000   0.00000   0.00000   0.00000   0.00000
  31        6PX        -0.12158   0.17565  -0.04275  -0.05864   0.01934
  32        6PY        -0.09656  -0.02618   0.12626   0.02701  -0.03417
  33        6PZ         0.00000   0.00000   0.00000   0.00000   0.00000
  34        7PX         0.21605  -0.08974  -0.04247   0.02993  -0.04017
  35        7PY         0.03636   0.16319   0.02488  -0.06734   0.00365
  36        7PZ         0.00000   0.00000   0.00000   0.00000   0.00000
  37        8D 0        0.00020   0.00391  -0.00129  -0.00203  -0.00033
  38        8D+1        0.00000   0.00000   0.00000   0.00000   0.00000
  39        8D-1        0.00000   0.00000   0.00000   0.00000   0.00000
  40        8D+2        0.01142   0.00325   0.01603   0.00210   0.00191
  41        8D-2        0.01676   0.00750  -0.00047   0.00420  -0.00224
  42        9D 0        0.00578  -0.00982  -0.00652  -0.00825  -0.00547
  43        9D+1        0.00000   0.00000   0.00000   0.00000   0.00000
  44        9D-1        0.00000   0.00000   0.00000   0.00000   0.00000
  45        9D+2       -0.05510  -0.02894  -0.03843  -0.03212  -0.05852
  46        9D-2       -0.08595   0.08221  -0.02353  -0.07047  -0.02894
  47 3   C  1S         -0.11274  -0.01424  -0.01549  -0.01734  -0.04731
  48        2S          0.12661   0.03967  -0.01070  -0.02077  -0.02363
  49        3S          0.34153   0.27446   0.07104   0.02755  -0.10639
  50        4S         -1.29198  -0.56523   0.31812  -0.53651   0.46443
  51        5PX         0.03300   0.22594  -0.09273   0.00423   0.06288
  52        5PY         0.10654   0.08960  -0.01461   0.06464  -0.16482
  53        5PZ         0.00000   0.00000   0.00000   0.00000   0.00000
  54        6PX         0.08232  -0.29705   0.08227   0.00604   0.17669
  55        6PY         0.08058   0.20482   0.02956   0.12522  -0.06456
  56        6PZ         0.00000   0.00000   0.00000   0.00000   0.00000
  57        7PX        -0.27120   0.27627   0.07817   0.07444  -0.07897
  58        7PY        -0.14282  -0.05322   0.05131  -0.09946   0.01329
  59        7PZ         0.00000   0.00000   0.00000   0.00000   0.00000
  60        8D 0        0.00528   0.00407   0.00189   0.00240  -0.00645
  61        8D+1        0.00000   0.00000   0.00000   0.00000   0.00000
  62        8D-1        0.00000   0.00000   0.00000   0.00000   0.00000
  63        8D+2        0.00079   0.00985   0.02304  -0.00333  -0.01605
  64        8D-2       -0.00213   0.00387  -0.00049  -0.01545  -0.00487
  65        9D 0        0.01593   0.01899   0.00211   0.01101  -0.01070
  66        9D+1        0.00000   0.00000   0.00000   0.00000   0.00000
  67        9D-1        0.00000   0.00000   0.00000   0.00000   0.00000
  68        9D+2       -0.04099   0.08321   0.08694   0.03371   0.03939
  69        9D-2       -0.00123  -0.11057   0.04736   0.06433   0.01644
  70 4   C  1S          0.00443   0.02728  -0.00876   0.05776   0.04152
  71        2S         -0.03035  -0.05418   0.02442  -0.02606  -0.05888
  72        3S         -0.11438  -0.11221   0.11786  -0.12983  -0.17668
  73        4S          0.88380   0.18271  -0.00924   0.14614  -0.03310
  74        5PX         0.12755  -0.04679  -0.07059  -0.00736   0.18032
  75        5PY        -0.05447  -0.00645  -0.23600  -0.01190   0.01571
  76        5PZ         0.00000   0.00000   0.00000   0.00000   0.00000
  77        6PX        -0.07541   0.37899  -0.09992  -0.09019   0.09343
  78        6PY         0.05852   0.03679  -0.08206   0.04008   0.02468
  79        6PZ         0.00000   0.00000   0.00000   0.00000   0.00000
  80        7PX         0.24336  -0.34512  -0.04281   0.10150  -0.02963
  81        7PY        -0.18862  -0.03479  -0.03429  -0.01570   0.00245
  82        7PZ         0.00000   0.00000   0.00000   0.00000   0.00000
  83        8D 0        0.00105   0.00492   0.01357   0.00035  -0.00127
  84        8D+1        0.00000   0.00000   0.00000   0.00000   0.00000
  85        8D-1        0.00000   0.00000   0.00000   0.00000   0.00000
  86        8D+2        0.03167   0.00873   0.04754  -0.00188  -0.00243
  87        8D-2       -0.01300   0.01817   0.00901   0.01636   0.01533
  88        9D 0       -0.00621   0.00064   0.00455  -0.00302  -0.00135
  89        9D+1        0.00000   0.00000   0.00000   0.00000   0.00000
  90        9D-1        0.00000   0.00000   0.00000   0.00000   0.00000
  91        9D+2       -0.01907  -0.02184  -0.06022  -0.02539   0.00594
  92        9D-2        0.03690  -0.10862   0.00328  -0.02863  -0.05408
  93 5   C  1S          0.07097   0.06324  -0.03173  -0.03111  -0.08011
  94        2S         -0.04924  -0.11557  -0.00360  -0.02033   0.13935
  95        3S         -0.05964  -0.25810  -0.12193   0.21535   0.22242
  96        4S          0.93004   0.54757  -0.19042   0.40635  -0.30707
  97        5PX         0.09872  -0.01451  -0.02933   0.14473  -0.17594
  98        5PY        -0.04303   0.07624  -0.24983   0.13578   0.15836
  99        5PZ         0.00000   0.00000   0.00000   0.00000   0.00000
 100        6PX        -0.07246  -0.24939   0.08734  -0.02757   0.07488
 101        6PY        -0.11346   0.24043  -0.02596   0.07465   0.05484
 102        6PZ         0.00000   0.00000   0.00000   0.00000   0.00000
 103        7PX         0.06349   0.15973  -0.00901   0.03719  -0.06747
 104        7PY         0.26262  -0.09866  -0.08841   0.01573   0.06376
 105        7PZ         0.00000   0.00000   0.00000   0.00000   0.00000
 106        8D 0       -0.00094   0.00056  -0.00035   0.00201  -0.00238
 107        8D+1        0.00000   0.00000   0.00000   0.00000   0.00000
 108        8D-1        0.00000   0.00000   0.00000   0.00000   0.00000
 109        8D+2        0.00704   0.00050   0.00645  -0.00254  -0.01257
 110        8D-2       -0.01519   0.00103   0.00349   0.00344   0.00068
 111        9D 0       -0.00332  -0.00836  -0.00672   0.00081   0.00452
 112        9D+1        0.00000   0.00000   0.00000   0.00000   0.00000
 113        9D-1        0.00000   0.00000   0.00000   0.00000   0.00000
 114        9D+2       -0.02295  -0.06387  -0.01262   0.04106   0.03238
 115        9D-2        0.02606   0.10835   0.00132   0.05267  -0.08283
 116 6   C  1S         -0.01913  -0.15353   0.06390   0.19990   0.03034
 117        2S         -0.00782   0.09164  -0.01091  -0.04003   0.08404
 118        3S         -0.10646   0.17205  -0.05261   0.07011   0.18618
 119        4S         -0.87022  -0.56864   0.11073   0.00787  -0.04139
 120        5PX        -0.13544  -0.07714   0.11046   0.15754  -0.14052
 121        5PY         0.08358   0.06969   0.21380  -0.14851  -0.20413
 122        5PZ         0.00000   0.00000   0.00000   0.00000   0.00000
 123        6PX         0.02510   0.20910  -0.02816  -0.01865   0.10012
 124        6PY        -0.08303   0.21101   0.02402   0.03862  -0.01233
 125        6PZ         0.00000   0.00000   0.00000   0.00000   0.00000
 126        7PX        -0.02022  -0.14784  -0.01208  -0.01143   0.00467
 127        7PY         0.27375  -0.13756  -0.01610   0.06905  -0.01392
 128        7PZ         0.00000   0.00000   0.00000   0.00000   0.00000
 129        8D 0        0.00067   0.00073   0.00001   0.00248  -0.00131
 130        8D+1        0.00000   0.00000   0.00000   0.00000   0.00000
 131        8D-1        0.00000   0.00000   0.00000   0.00000   0.00000
 132        8D+2        0.00772   0.00323   0.01603  -0.00519  -0.01237
 133        8D-2       -0.01658  -0.00358   0.00088  -0.00333  -0.00059
 134        9D 0       -0.00104   0.00510  -0.00146   0.00681   0.00751
 135        9D+1        0.00000   0.00000   0.00000   0.00000   0.00000
 136        9D-1        0.00000   0.00000   0.00000   0.00000   0.00000
 137        9D+2       -0.03262   0.05724  -0.06224   0.07493   0.08051
 138        9D-2        0.02596   0.10706  -0.02569  -0.04168   0.01386
 139 7   N  1S         -0.00294  -0.07193   0.12676  -0.16974   0.04529
 140        2S         -0.10467   0.04971  -0.03671   0.09003   0.09127
 141        3S         -0.13826  -0.04884  -0.08960   0.05507   0.12475
 142        4S          0.22416   0.00525  -0.17998   0.02147  -0.08041
 143        5PX         0.03606  -0.00326  -0.02607   0.16404  -0.00544
 144        5PY         0.00545  -0.17532  -0.05258  -0.15780   0.16845
 145        5PZ         0.00000   0.00000   0.00000   0.00000   0.00000
 146        6PX         0.01948  -0.03017  -0.00398   0.10174  -0.01002
 147        6PY        -0.00424   0.13960   0.05100   0.07862   0.02908
 148        6PZ         0.00000   0.00000   0.00000   0.00000   0.00000
 149        7PX         0.01015  -0.03943   0.00617  -0.01248  -0.00206
 150        7PY         0.05401   0.13782   0.02578   0.13567  -0.06519
 151        7PZ         0.00000   0.00000   0.00000   0.00000   0.00000
 152        8D 0        0.00041  -0.00509  -0.00312  -0.00214  -0.00270
 153        8D+1        0.00000   0.00000   0.00000   0.00000   0.00000
 154        8D-1        0.00000   0.00000   0.00000   0.00000   0.00000
 155        8D+2       -0.00110  -0.00776  -0.00228  -0.00363  -0.00393
 156        8D-2        0.00006   0.00875  -0.00229  -0.00756   0.00385
 157        9D 0       -0.01257   0.01510   0.00994   0.01037   0.00623
 158        9D+1        0.00000   0.00000   0.00000   0.00000   0.00000
 159        9D-1        0.00000   0.00000   0.00000   0.00000   0.00000
 160        9D+2       -0.01061   0.02318   0.01159   0.01558   0.00159
 161        9D-2       -0.00388   0.03153  -0.00818   0.00596  -0.00041
 162 8   N  1S         -0.00161  -0.00188  -0.09740   0.00416  -0.14655
 163        2S          0.03395   0.14109   0.06372   0.03569   0.08945
 164        3S          0.06781   0.29286   0.17091   0.07386   0.11697
 165        4S          0.01022   0.17971   0.13490   0.12271  -0.03043
 166        5PX         0.01937  -0.05030  -0.00222   0.12275  -0.02781
 167        5PY        -0.08218   0.10937  -0.01425   0.17663  -0.14592
 168        5PZ         0.00000   0.00000   0.00000   0.00000   0.00000
 169        6PX         0.00170   0.00040  -0.00497   0.05753  -0.01618
 170        6PY        -0.01400   0.12787   0.04279   0.10567  -0.07344
 171        6PZ         0.00000   0.00000   0.00000   0.00000   0.00000
 172        7PX         0.00232   0.00262  -0.00248   0.00227   0.00107
 173        7PY        -0.00029   0.01957   0.02561   0.00941  -0.00140
 174        7PZ         0.00000   0.00000   0.00000   0.00000   0.00000
 175        8D 0        0.00371  -0.00542   0.00016  -0.00739   0.00399
 176        8D+1        0.00000   0.00000   0.00000   0.00000   0.00000
 177        8D-1        0.00000   0.00000   0.00000   0.00000   0.00000
 178        8D+2        0.00627  -0.00881   0.00135  -0.01300   0.00727
 179        8D-2        0.00254  -0.00147  -0.00159   0.01256  -0.00135
 180        9D 0       -0.00146  -0.00917  -0.00299  -0.00501  -0.00020
 181        9D+1        0.00000   0.00000   0.00000   0.00000   0.00000
 182        9D-1        0.00000   0.00000   0.00000   0.00000   0.00000
 183        9D+2       -0.00549  -0.01576  -0.00562  -0.00756   0.00283
 184        9D-2       -0.00164   0.00989  -0.00252   0.00443  -0.00073
 185 9   H  1S          0.21600  -0.13199   0.09832   0.14594   0.05164
 186        2S          0.42940  -0.14571   0.12035   0.23008   0.08613
 187        3S         -0.04279   0.02380   0.01256   0.01245   0.02081
 188        4PX        -0.01184   0.01065  -0.00467  -0.00619  -0.00411
 189        4PY        -0.00337   0.00930   0.00120  -0.00483  -0.00091
 190        4PZ         0.00000   0.00000   0.00000   0.00000   0.00000
 191        5PX        -0.07236   0.02289  -0.01874  -0.04183  -0.00803
 192        5PY        -0.05721  -0.00366  -0.02624  -0.02520  -0.02128
 193        5PZ         0.00000   0.00000   0.00000   0.00000   0.00000
 194 10  H  1S         -0.08210  -0.07966   0.13010  -0.15591   0.12238
 195        2S         -0.19302  -0.17448   0.18375  -0.22566   0.16938
 196        3S          0.03750   0.03010  -0.00124   0.01164  -0.01031
 197        4PX        -0.00291  -0.00658   0.00786  -0.00722   0.00639
 198        4PY        -0.00367  -0.00246  -0.00158  -0.00290   0.00928
 199        4PZ         0.00000   0.00000   0.00000   0.00000   0.00000
 200        5PX        -0.04624  -0.03536   0.03452  -0.04112   0.04219
 201        5PY        -0.00962  -0.00398   0.03519  -0.02442  -0.01065
 202        5PZ         0.00000   0.00000   0.00000   0.00000   0.00000
 203 11  H  1S          0.13860   0.13730   0.01067  -0.19377   0.04804
 204        2S          0.28331   0.21885   0.00632  -0.25299   0.00659
 205        3S         -0.01273  -0.02754  -0.00162  -0.01762  -0.00939
 206        4PX         0.00411   0.00743   0.00205  -0.00935   0.00176
 207        4PY        -0.00146  -0.00477   0.00537   0.00493  -0.00766
 208        4PZ         0.00000   0.00000   0.00000   0.00000   0.00000
 209        5PX         0.05546   0.04297  -0.00838  -0.03868   0.01242
 210        5PY        -0.03930  -0.00833  -0.02258   0.04130   0.02819
 211        5PZ         0.00000   0.00000   0.00000   0.00000   0.00000
 212 12  H  1S         -0.24941   0.00886   0.20327   0.03088  -0.01390
 213        2S         -0.48413   0.03744   0.27165  -0.00922  -0.05032
 214        3S          0.05433  -0.00504  -0.00169   0.00529  -0.01291
 215        4PX         0.01107  -0.00423  -0.00957  -0.00146   0.00061
 216        4PY        -0.00999  -0.00478   0.00297   0.00080  -0.00001
 217        4PZ         0.00000   0.00000   0.00000   0.00000   0.00000
 218        5PX         0.10070   0.00524  -0.05118   0.00929   0.00559
 219        5PY        -0.03188   0.02222   0.04031   0.00058  -0.00625
 220        5PZ         0.00000   0.00000   0.00000   0.00000   0.00000
 221 13  F  1S         -0.00517   0.04551  -0.04466   0.03697  -0.08715
 222        2S         -0.02452  -0.03060  -0.00942  -0.03547   0.08895
 223        3S         -0.02524  -0.03533   0.01540  -0.04468   0.10948
 224        4S         -0.10150  -0.04214  -0.02312  -0.03714   0.02041
 225        5PX        -0.11782   0.18834   0.09605   0.15817   0.27012
 226        5PY         0.13389   0.05662   0.35075   0.00394   0.04094
 227        5PZ         0.00000   0.00000   0.00000   0.00000   0.00000
 228        6PX        -0.07991   0.12293   0.06443   0.10339   0.17120
 229        6PY         0.07575   0.03096   0.18121   0.00135   0.01963
 230        6PZ         0.00000   0.00000   0.00000   0.00000   0.00000
 231        7PX        -0.03034   0.04243   0.01572   0.01289   0.02601
 232        7PY         0.04531   0.01826   0.04400   0.00698  -0.00284
 233        7PZ         0.00000   0.00000   0.00000   0.00000   0.00000
 234        8D 0        0.00161   0.00117   0.00481   0.00061   0.00017
 235        8D+1        0.00000   0.00000   0.00000   0.00000   0.00000
 236        8D-1        0.00000   0.00000   0.00000   0.00000   0.00000
 237        8D+2        0.00377   0.00198   0.00851   0.00093   0.00049
 238        8D-2        0.00029  -0.00235  -0.00062  -0.00252  -0.00610
 239        9D 0       -0.00076  -0.00046  -0.00354   0.00009   0.00165
 240        9D+1        0.00000   0.00000   0.00000   0.00000   0.00000
 241        9D-1        0.00000   0.00000   0.00000   0.00000   0.00000
 242        9D+2       -0.00121   0.00048  -0.00275   0.00016   0.00119
 243        9D-2        0.00123  -0.00402  -0.00181  -0.00439  -0.01123
                           6         7         8         9        10
     Eigenvalues --     2.00000   2.00000   2.00000   2.00000   2.00000
   1 1   C  1S          0.03379   0.00000  -0.03835  -0.00379   0.12988
   2        2S         -0.01187   0.00000  -0.00317   0.01567   0.05263
   3        3S          0.07702   0.00000  -0.03105   0.02052  -0.04440
   4        4S          0.02103   0.00000  -0.09098  -0.11075  -0.00964
   5        5PX        -0.02670   0.00000  -0.04548  -0.10187  -0.10382
   6        5PY         0.02745   0.00000  -0.08388  -0.08636   0.07759
   7        5PZ         0.00000  -0.05914   0.00000   0.00000   0.00000
   8        6PX        -0.09541   0.00000   0.00608  -0.13777   0.12726
   9        6PY        -0.11515   0.00000  -0.17337  -0.27439   0.17940
  10        6PZ         0.00000  -0.04628   0.00000   0.00000   0.00000
  11        7PX         0.04351   0.00000   0.01227  -0.08838   0.05190
  12        7PY         0.06876   0.00000   0.01105  -0.21554   0.04657
  13        7PZ         0.00000  -0.00032   0.00000   0.00000   0.00000
  14        8D 0        0.00040   0.00000   0.00076  -0.00198  -0.00254
  15        8D+1        0.00000  -0.00288   0.00000   0.00000   0.00000
  16        8D-1        0.00000  -0.01528   0.00000   0.00000   0.00000
  17        8D+2       -0.00171   0.00000   0.00915   0.00074   0.00212
  18        8D-2       -0.01450   0.00000   0.00781  -0.00158  -0.00495
  19        9D 0        0.00009   0.00000   0.00728   0.00207  -0.00283
  20        9D+1        0.00000   0.00469   0.00000   0.00000   0.00000
  21        9D-1        0.00000  -0.01504   0.00000   0.00000   0.00000
  22        9D+2        0.05280   0.00000  -0.02351   0.04788  -0.04491
  23        9D-2        0.00910   0.00000   0.04057   0.03083  -0.05697
  24 2   C  1S         -0.18445   0.00000   0.01459   0.34303  -0.03038
  25        2S          0.03191   0.00000  -0.09618   0.06112   0.05638
  26        3S          0.20276   0.00000  -0.22809   0.14877  -0.03682
  27        4S          0.22064   0.00000   0.11568   0.07833   0.32447
  28        5PX        -0.22671   0.00000   0.11391  -0.16172  -0.13434
  29        5PY         0.00933   0.00000   0.03117   0.08172  -0.05240
  30        5PZ         0.00000  -0.22967   0.00000   0.00000   0.00000
  31        6PX         0.04013   0.00000   0.07834   0.07227  -0.01056
  32        6PY        -0.03315   0.00000  -0.14424  -0.13535   0.13230
  33        6PZ         0.00000  -0.09243   0.00000   0.00000   0.00000
  34        7PX        -0.08416   0.00000  -0.03429   0.10446  -0.09045
  35        7PY         0.08797   0.00000   0.02661  -0.18948   0.08956
  36        7PZ         0.00000  -0.01026   0.00000   0.00000   0.00000
  37        8D 0       -0.00178   0.00000  -0.00038  -0.00322  -0.00381
  38        8D+1        0.00000   0.01749   0.00000   0.00000   0.00000
  39        8D-1        0.00000  -0.00433   0.00000   0.00000   0.00000
  40        8D+2        0.00268   0.00000   0.00202   0.00974  -0.00230
  41        8D-2       -0.00900   0.00000   0.00379  -0.00019  -0.00521
  42        9D 0       -0.00178   0.00000  -0.01232   0.00183  -0.00558
  43        9D+1        0.00000  -0.00779   0.00000   0.00000   0.00000
  44        9D-1        0.00000  -0.01772   0.00000   0.00000   0.00000
  45        9D+2       -0.03416   0.00000  -0.04586  -0.08197   0.01480
  46        9D-2        0.03463   0.00000   0.03175   0.03108  -0.00039
  47 3   C  1S          0.24154   0.00000   0.19335  -0.00387  -0.18433
  48        2S         -0.06500   0.00000   0.06540  -0.06741   0.08410
  49        3S         -0.17463   0.00000  -0.08738  -0.31281   0.13588
  50        4S         -0.26459   0.00000   0.11712   0.27737  -0.14247
  51        5PX        -0.03773   0.00000   0.04364   0.21550  -0.06292
  52        5PY         0.09668   0.00000   0.07295   0.02299   0.11588
  53        5PZ         0.00000   0.10146   0.00000   0.00000   0.00000
  54        6PX        -0.11037   0.00000   0.07551  -0.06473   0.24858
  55        6PY         0.01042   0.00000  -0.18213  -0.13848   0.06166
  56        6PZ         0.00000   0.06818   0.00000   0.00000   0.00000
  57        7PX         0.09695   0.00000   0.08355  -0.23649   0.05743
  58        7PY        -0.05146   0.00000   0.07897   0.03613  -0.00231
  59        7PZ         0.00000   0.01110   0.00000   0.00000   0.00000
  60        8D 0        0.00494   0.00000   0.00085   0.00119  -0.00059
  61        8D+1        0.00000  -0.00144   0.00000   0.00000   0.00000
  62        8D-1        0.00000  -0.01097   0.00000   0.00000   0.00000
  63        8D+2        0.00638   0.00000   0.00931   0.00349   0.01579
  64        8D-2        0.01136   0.00000  -0.00601  -0.00985   0.00372
  65        9D 0        0.00352   0.00000  -0.01356  -0.01211  -0.00012
  66        9D+1        0.00000  -0.00065   0.00000   0.00000   0.00000
  67        9D-1        0.00000   0.00867   0.00000   0.00000   0.00000
  68        9D+2       -0.05080   0.00000  -0.18156  -0.09907   0.00203
  69        9D-2       -0.07069   0.00000   0.03997  -0.03068   0.07677
  70 4   C  1S         -0.04312   0.00000   0.00781  -0.07547  -0.04038
  71        2S          0.04834   0.00000   0.05844   0.08825   0.11605
  72        3S          0.09492   0.00000   0.19763   0.26917   0.18214
  73        4S         -0.13405   0.00000  -0.14837  -0.18553  -0.14252
  74        5PX         0.19826   0.00000  -0.15512   0.08741   0.10993
  75        5PY        -0.08084   0.00000   0.06712  -0.19665   0.02871
  76        5PZ         0.00000  -0.38618   0.00000   0.00000   0.00000
  77        6PX         0.05847   0.00000   0.03823   0.08604  -0.12057
  78        6PY        -0.07728   0.00000  -0.04658  -0.09818  -0.02169
  79        6PZ         0.00000  -0.18726   0.00000   0.00000   0.00000
  80        7PX        -0.13384   0.00000  -0.08702   0.27728  -0.21066
  81        7PY         0.01845   0.00000   0.02170   0.04018   0.02991
  82        7PZ         0.00000   0.00467   0.00000   0.00000   0.00000
  83        8D 0        0.00018   0.00000  -0.00650   0.00524  -0.00405
  84        8D+1        0.00000  -0.00130   0.00000   0.00000   0.00000
  85        8D-1        0.00000  -0.00341   0.00000   0.00000   0.00000
  86        8D+2       -0.00183   0.00000  -0.01342   0.01291  -0.00405
  87        8D-2       -0.01243   0.00000   0.02755  -0.00435   0.00893
  88        9D 0        0.00550   0.00000   0.00795   0.00021  -0.00116
  89        9D+1        0.00000  -0.00042   0.00000   0.00000   0.00000
  90        9D-1        0.00000   0.03700   0.00000   0.00000   0.00000
  91        9D+2       -0.00225   0.00000   0.08085  -0.04456   0.01224
  92        9D-2       -0.00075   0.00000  -0.05367  -0.01279   0.00134
  93 5   C  1S         -0.09726   0.00000  -0.04639   0.07125  -0.09230
  94        2S         -0.02193   0.00000   0.00443   0.03304   0.05875
  95        3S         -0.04491   0.00000   0.12594   0.04472   0.13603
  96        4S          0.10126   0.00000   0.11830  -0.42984  -0.13762
  97        5PX         0.03061   0.00000   0.07319  -0.14830  -0.00209
  98        5PY         0.02535   0.00000   0.03176   0.12238  -0.22931
  99        5PZ         0.00000  -0.02944   0.00000   0.00000   0.00000
 100        6PX        -0.08269   0.00000   0.10382  -0.00150   0.13088
 101        6PY        -0.05391   0.00000  -0.20595   0.03961  -0.09798
 102        6PZ         0.00000  -0.02969   0.00000   0.00000   0.00000
 103        7PX         0.08728   0.00000   0.02163  -0.14595   0.08466
 104        7PY        -0.08414   0.00000  -0.03173   0.13109  -0.11181
 105        7PZ         0.00000   0.00113   0.00000   0.00000   0.00000
 106        8D 0        0.00099   0.00000  -0.00147   0.00149  -0.00272
 107        8D+1        0.00000   0.00304   0.00000   0.00000   0.00000
 108        8D-1        0.00000  -0.01391   0.00000   0.00000   0.00000
 109        8D+2        0.00257   0.00000   0.00170  -0.00472   0.01403
 110        8D-2       -0.00165   0.00000   0.00682   0.01755  -0.00228
 111        9D 0        0.00254   0.00000   0.00232   0.00191   0.00041
 112        9D+1        0.00000  -0.00483   0.00000   0.00000   0.00000
 113        9D-1        0.00000  -0.01528   0.00000   0.00000   0.00000
 114        9D+2       -0.02202   0.00000   0.05332   0.00833  -0.01710
 115        9D-2       -0.00506   0.00000  -0.03041  -0.05860  -0.04476
 116 6   C  1S          0.35955   0.00000  -0.05031  -0.06942  -0.05834
 117        2S         -0.02833   0.00000   0.07799  -0.00646  -0.07606
 118        3S         -0.07918   0.00000   0.27539   0.09378  -0.16518
 119        4S         -0.00729   0.00000  -0.08374   0.46925   0.04368
 120        5PX        -0.06266   0.00000   0.12632   0.13213  -0.02904
 121        5PY        -0.04644   0.00000   0.02203  -0.14725   0.13500
 122        5PZ         0.00000  -0.20251   0.00000   0.00000   0.00000
 123        6PX        -0.00686   0.00000   0.01792  -0.02531  -0.08871
 124        6PY        -0.03759   0.00000  -0.12751   0.05809  -0.02887
 125        6PZ         0.00000  -0.07665   0.00000   0.00000   0.00000
 126        7PX        -0.05738   0.00000  -0.02846   0.13782  -0.07117
 127        7PY        -0.10650   0.00000   0.00186   0.12891  -0.13225
 128        7PZ         0.00000  -0.00946   0.00000   0.00000   0.00000
 129        8D 0       -0.00140   0.00000  -0.00124  -0.00225   0.00076
 130        8D+1        0.00000  -0.01734   0.00000   0.00000   0.00000
 131        8D-1        0.00000  -0.00590   0.00000   0.00000   0.00000
 132        8D+2        0.00419   0.00000  -0.00399   0.00370   0.00392
 133        8D-2       -0.00643   0.00000   0.00746   0.00827   0.00237
 134        9D 0       -0.00577   0.00000   0.00633  -0.00109   0.00399
 135        9D+1        0.00000   0.00790   0.00000   0.00000   0.00000
 136        9D-1        0.00000  -0.01845   0.00000   0.00000   0.00000
 137        9D+2        0.00058   0.00000  -0.01020   0.01496  -0.00795
 138        9D-2       -0.00003   0.00000  -0.03784  -0.04306  -0.03583
 139 7   N  1S          0.15760   0.00000   0.32817   0.17513  -0.02148
 140        2S         -0.00956   0.00000  -0.23052  -0.04266  -0.03156
 141        3S         -0.07701   0.00000  -0.22378  -0.07155  -0.04984
 142        4S         -0.02143   0.00000   0.11207  -0.05686   0.00375
 143        5PX        -0.19970   0.00000   0.06410   0.19418   0.06075
 144        5PY        -0.17217   0.00000   0.12172  -0.03255  -0.09337
 145        5PZ         0.00000   0.09515   0.00000   0.00000   0.00000
 146        6PX        -0.12331   0.00000   0.03815   0.09689   0.05063
 147        6PY        -0.00867   0.00000  -0.18916  -0.09050  -0.00656
 148        6PZ         0.00000   0.06365   0.00000   0.00000   0.00000
 149        7PX        -0.00664   0.00000  -0.00691  -0.01415   0.02944
 150        7PY         0.08408   0.00000  -0.14701  -0.02526   0.06495
 151        7PZ         0.00000   0.00480   0.00000   0.00000   0.00000
 152        8D 0        0.00239   0.00000   0.00791   0.00346  -0.00081
 153        8D+1        0.00000  -0.00008   0.00000   0.00000   0.00000
 154        8D-1        0.00000   0.00628   0.00000   0.00000   0.00000
 155        8D+2        0.00344   0.00000   0.01094   0.00545  -0.00075
 156        8D-2        0.00859   0.00000  -0.00105  -0.00070  -0.00659
 157        9D 0        0.00106   0.00000  -0.03034  -0.01205  -0.00346
 158        9D+1        0.00000  -0.00014   0.00000   0.00000   0.00000
 159        9D-1        0.00000   0.00958   0.00000   0.00000   0.00000
 160        9D+2        0.00765   0.00000  -0.03491  -0.01379  -0.00456
 161        9D-2       -0.00089   0.00000   0.00530   0.01867  -0.01921
 162 8   N  1S          0.09423   0.00000   0.13106  -0.02469  -0.00841
 163        2S         -0.06302   0.00000  -0.15355  -0.07983  -0.04178
 164        3S         -0.08261   0.00000  -0.28528  -0.16809  -0.05068
 165        4S          0.07561   0.00000  -0.19918  -0.02976   0.06124
 166        5PX        -0.15431   0.00000   0.03742   0.10629   0.08041
 167        5PY         0.17369   0.00000  -0.16832   0.03719   0.09051
 168        5PZ         0.00000  -0.02648   0.00000   0.00000   0.00000
 169        6PX        -0.06512   0.00000   0.01855   0.05305   0.02140
 170        6PY         0.08371   0.00000  -0.13169  -0.01962   0.04755
 171        6PZ         0.00000  -0.02934   0.00000   0.00000   0.00000
 172        7PX         0.00002   0.00000  -0.00087   0.00656  -0.00647
 173        7PY         0.00823   0.00000  -0.02095  -0.00242   0.00606
 174        7PZ         0.00000  -0.01031   0.00000   0.00000   0.00000
 175        8D 0       -0.00566   0.00000   0.00922  -0.00048  -0.00272
 176        8D+1        0.00000  -0.00000   0.00000   0.00000   0.00000
 177        8D-1        0.00000   0.00411   0.00000   0.00000   0.00000
 178        8D+2       -0.01028   0.00000   0.01537  -0.00116  -0.00471
 179        8D-2       -0.01563   0.00000   0.00458   0.01396   0.00589
 180        9D 0       -0.00094   0.00000   0.00933   0.00419  -0.00031
 181        9D+1        0.00000  -0.00003   0.00000   0.00000   0.00000
 182        9D-1        0.00000  -0.00030   0.00000   0.00000   0.00000
 183        9D+2       -0.00268   0.00000   0.01174   0.00597  -0.00162
 184        9D-2       -0.00231   0.00000   0.00226   0.00712  -0.00581
 185 9   H  1S         -0.13490   0.00000   0.05124  -0.03807  -0.08700
 186        2S         -0.19839   0.00000   0.09924  -0.01567  -0.13720
 187        3S          0.00199   0.00000   0.02035  -0.01179   0.01652
 188        4PX         0.00265   0.00000   0.00079   0.00048   0.00085
 189        4PY         0.00479   0.00000   0.00006   0.00373   0.00213
 190        4PZ         0.00000  -0.00762   0.00000   0.00000   0.00000
 191        5PX         0.04904   0.00000  -0.02058   0.01252   0.02590
 192        5PY         0.01233   0.00000  -0.02668  -0.01658   0.01043
 193        5PZ         0.00000   0.00521   0.00000   0.00000   0.00000
 194 10  H  1S         -0.04685   0.00000  -0.04748   0.09117   0.13440
 195        2S         -0.10010   0.00000  -0.03142   0.18450   0.18005
 196        3S          0.00396   0.00000   0.01018  -0.01114   0.01248
 197        4PX        -0.00213   0.00000  -0.00329   0.00122   0.00857
 198        4PY        -0.00197   0.00000  -0.00130   0.00582  -0.00034
 199        4PZ         0.00000  -0.00082   0.00000   0.00000   0.00000
 200        5PX        -0.02703   0.00000  -0.00194   0.04380   0.02421
 201        5PY        -0.01261   0.00000  -0.00847   0.00658   0.02681
 202        5PZ         0.00000  -0.00195   0.00000   0.00000   0.00000
 203 11  H  1S          0.01909   0.00000  -0.03744  -0.15956   0.04464
 204        2S          0.07427   0.00000  -0.07978  -0.26189  -0.02467
 205        3S          0.00390   0.00000  -0.02463   0.00620  -0.01178
 206        4PX        -0.00252   0.00000   0.00226  -0.00651   0.00157
 207        4PY        -0.00007   0.00000  -0.00016   0.00380   0.00083
 208        4PZ         0.00000  -0.00665   0.00000   0.00000   0.00000
 209        5PX         0.02212   0.00000  -0.02510  -0.04937  -0.00969
 210        5PY        -0.00908   0.00000   0.00484   0.03203   0.00308
 211        5PZ         0.00000   0.00580   0.00000   0.00000   0.00000
 212 12  H  1S         -0.01271   0.00000  -0.00821  -0.02293  -0.06883
 213        2S          0.00601   0.00000  -0.01112  -0.02223  -0.08884
 214        3S          0.00297   0.00000  -0.00430  -0.00809  -0.00235
 215        4PX         0.00252   0.00000  -0.00056  -0.00055   0.00225
 216        4PY        -0.00020   0.00000  -0.00189  -0.00340  -0.00134
 217        4PZ         0.00000  -0.00189   0.00000   0.00000   0.00000
 218        5PX        -0.00594   0.00000   0.01191   0.00693   0.01838
 219        5PY        -0.00266   0.00000  -0.00029  -0.00211   0.00235
 220        5PZ         0.00000  -0.00249   0.00000   0.00000   0.00000
 221 13  F  1S         -0.21473   0.00000  -0.19530   0.01457   0.13509
 222        2S          0.17532   0.00000   0.17204  -0.05889  -0.11764
 223        3S          0.21613   0.00000   0.20422  -0.05628  -0.15084
 224        4S          0.06614   0.00000   0.09798   0.01000  -0.00951
 225        5PX        -0.00413   0.00000   0.23573  -0.09173   0.37181
 226        5PY         0.10556   0.00000  -0.06923   0.14706  -0.14593
 227        5PZ         0.00000  -0.32710   0.00000   0.00000   0.00000
 228        6PX        -0.00449   0.00000   0.15507  -0.06362   0.24283
 229        6PY         0.04781   0.00000  -0.03598   0.07153  -0.07327
 230        6PZ         0.00000  -0.20336   0.00000   0.00000   0.00000
 231        7PX        -0.00596   0.00000   0.04055  -0.02491   0.05190
 232        7PY        -0.00710   0.00000  -0.02727   0.00291  -0.00736
 233        7PZ         0.00000  -0.02064   0.00000   0.00000   0.00000
 234        8D 0        0.00061   0.00000  -0.00252   0.00275  -0.00192
 235        8D+1        0.00000  -0.00003   0.00000   0.00000   0.00000
 236        8D-1        0.00000   0.00969   0.00000   0.00000   0.00000
 237        8D+2        0.00069   0.00000  -0.00419   0.00421  -0.00320
 238        8D-2       -0.00200   0.00000  -0.00193   0.00015  -0.00618
 239        9D 0       -0.00131   0.00000   0.00095  -0.00281  -0.00114
 240        9D+1        0.00000  -0.00000   0.00000   0.00000   0.00000
 241        9D-1        0.00000   0.02188   0.00000   0.00000   0.00000
 242        9D+2       -0.00217   0.00000  -0.00005  -0.00282  -0.00165
 243        9D-2       -0.00489   0.00000  -0.00315   0.00238  -0.01536
                          11        12        13        14        15
     Eigenvalues --     2.00000   2.00000   2.00000   2.00000   2.00000
   1 1   C  1S         -0.12326  -0.15214   0.08319   0.00000   0.20782
   2        2S         -0.05431  -0.02192   0.02186   0.00000   0.05504
   3        3S         -0.13409  -0.04419  -0.05188   0.00000   0.18321
   4        4S          0.11286  -0.05423  -0.13049   0.00000   0.01427
   5        5PX         0.06190   0.05260  -0.00206   0.00000  -0.14651
   6        5PY         0.11577  -0.14745   0.04983   0.00000  -0.02082
[...]
   A13        2.05254   0.00005   0.00000   0.00039   0.00039   2.05293
   A14        2.11113  -0.00005   0.00000  -0.00038  -0.00038   2.11075
   A15        2.11952  -0.00000   0.00000  -0.00002  -0.00002   2.11950
   A16        2.07100   0.00010   0.00000   0.00057   0.00057   2.07157
   A17        2.09240  -0.00006   0.00000  -0.00032  -0.00032   2.09209
   A18        2.11978  -0.00004   0.00000  -0.00026  -0.00026   2.11953
   A19        3.14159   0.00000   0.00000  -0.00000  -0.00000   3.14159
   A20        3.14159  -0.00000   0.00000  -0.00000   0.00000   3.14159
    D1        0.00000   0.00000   0.00000   0.00000   0.00000   0.00000
    D2        3.14159   0.00000   0.00000   0.00000   0.00000   3.14159
    D3        3.14159   0.00000   0.00000   0.00000   0.00000   3.14159
    D4        0.00000  -0.00000   0.00000   0.00000   0.00000   0.00000
    D5        0.00000  -0.00000   0.00000  -0.00000   0.00000   0.00000
    D6        3.14159  -0.00000   0.00000  -0.00000   0.00000   3.14159
    D7        3.14159  -0.00000   0.00000  -0.00000   0.00000   3.14159
    D8        0.00000  -0.00000   0.00000  -0.00000   0.00000   0.00000
    D9        0.00000   0.00000   0.00000   0.00000   0.00000   0.00000
   D10        3.14159  -0.00000   0.00000   0.00000   0.00000   3.14159
   D11        3.14159  -0.00000   0.00000   0.00000   0.00000   3.14159
   D12        0.00000   0.00000   0.00000   0.00000   0.00000   0.00000
   D13        0.00000  -0.00000   0.00000   0.00000   0.00000   0.00000
   D14        3.14159   0.00000   0.00000   0.00000   0.00000   3.14159
   D15        3.14159   0.00000   0.00000   0.00000   0.00000   3.14159
   D16        0.00000  -0.00000   0.00000   0.00000   0.00000   0.00000
   D17        0.00000   0.00000   0.00000  -0.00000   0.00000   0.00000
   D18        3.14159   0.00000   0.00000  -0.00000   0.00000   3.14159
   D19        3.14159   0.00000   0.00000  -0.00000   0.00000   3.14159
   D20        0.00000  -0.00000   0.00000  -0.00000   0.00000   0.00000
   D21        0.00000   0.00000   0.00000   0.00000   0.00000   0.00000
   D22        3.14159   0.00000   0.00000   0.00000   0.00000   3.14159
   D23        3.14159   0.00000   0.00000   0.00000   0.00000   3.14159
   D24        0.00000  -0.00000   0.00000   0.00000   0.00000   0.00000
         Item               Value     Threshold  Converged?
 Maximum Force            0.000448     0.000450     YES
 RMS     Force            0.000099     0.000300     YES
 Maximum Displacement     0.001017     0.001800     YES
 RMS     Displacement     0.000325     0.001200     YES
 Predicted change in Energy=-8.469303D-07
 Optimization completed.
    -- Stationary point found.
                           ----------------------------
                           !   Optimized Parameters   !
                           ! (Angstroms and Degrees)  !
 --------------------------                            --------------------------
 ! Name  Definition              Value          Derivative Info.                !
 --------------------------------------------------------------------------------
 ! R1    R(1,2)                  1.3839         -DE/DX =   -0.0001              !
 ! R2    R(1,3)                  1.4139         -DE/DX =    0.0                 !
 ! R3    R(1,12)                 1.0889         -DE/DX =   -0.0001              !
 ! R4    R(2,4)                  1.4032         -DE/DX =    0.0001              !
 ! R5    R(2,9)                  1.0889         -DE/DX =    0.0                 !
 ! R6    R(3,5)                  1.4139         -DE/DX =    0.0                 !
 ! R7    R(3,7)                  1.3771         -DE/DX =   -0.0004              !
 ! R8    R(4,6)                  1.4032         -DE/DX =    0.0001              !
 ! R9    R(4,13)                 1.3252         -DE/DX =    0.0                 !
 ! R10   R(5,6)                  1.3839         -DE/DX =   -0.0001              !
 ! R11   R(5,10)                 1.0889         -DE/DX =   -0.0001              !
 ! R12   R(6,11)                 1.0889         -DE/DX =    0.0                 !
 ! R13   R(7,8)                  1.1154         -DE/DX =   -0.0004              !
 ! A1    A(2,1,3)              117.6017         -DE/DX =    0.0001              !
 ! A2    A(2,1,12)             121.439          -DE/DX =    0.0                 !
 ! A3    A(3,1,12)             120.9594         -DE/DX =   -0.0001              !
 ! A4    A(1,2,4)              118.6594         -DE/DX =    0.0001              !
 ! A5    A(1,2,9)              121.4547         -DE/DX =    0.0                 !
 ! A6    A(4,2,9)              119.8859         -DE/DX =   -0.0001              !
 ! A7    A(1,3,5)              123.8825         -DE/DX =   -0.0001              !
 ! A8    A(1,3,7)              118.0587         -DE/DX =    0.0                 !
 ! A9    A(5,3,7)              118.0587         -DE/DX =    0.0                 !
 ! A10   A(2,4,6)              123.5954         -DE/DX =   -0.0002              !
 ! A11   A(2,4,13)             118.2023         -DE/DX =    0.0001              !
 ! A12   A(6,4,13)             118.2023         -DE/DX =    0.0001              !
 ! A13   A(3,5,6)              117.6017         -DE/DX =    0.0001              !
 ! A14   A(3,5,10)             120.9589         -DE/DX =   -0.0001              !
 ! A15   A(6,5,10)             121.4394         -DE/DX =    0.0                 !
 ! A16   A(4,6,5)              118.6594         -DE/DX =    0.0001              !
 ! A17   A(4,6,11)             119.8859         -DE/DX =   -0.0001              !
 ! A18   A(5,6,11)             121.4547         -DE/DX =    0.0                 !
 ! A19   L(3,7,8,10,-1)        180.0            -DE/DX =    0.0                 !
 ! A20   L(3,7,8,10,-2)        180.0            -DE/DX =    0.0                 !
 ! D1    D(3,1,2,4)              0.0            -DE/DX =    0.0                 !
 ! D2    D(3,1,2,9)            180.0            -DE/DX =    0.0                 !
 ! D3    D(12,1,2,4)           180.0            -DE/DX =    0.0                 !
 ! D4    D(12,1,2,9)             0.0            -DE/DX =    0.0                 !
 ! D5    D(2,1,3,5)              0.0            -DE/DX =    0.0                 !
 ! D6    D(2,1,3,7)            180.0            -DE/DX =    0.0                 !
 ! D7    D(12,1,3,5)           180.0            -DE/DX =    0.0                 !
 ! D8    D(12,1,3,7)             0.0            -DE/DX =    0.0                 !
 ! D9    D(1,2,4,6)              0.0            -DE/DX =    0.0                 !
 ! D10   D(1,2,4,13)           180.0            -DE/DX =    0.0                 !
 ! D11   D(9,2,4,6)            180.0            -DE/DX =    0.0                 !
 ! D12   D(9,2,4,13)             0.0            -DE/DX =    0.0                 !
 ! D13   D(1,3,5,6)              0.0            -DE/DX =    0.0                 !
 ! D14   D(1,3,5,10)           180.0            -DE/DX =    0.0                 !
 ! D15   D(7,3,5,6)            180.0            -DE/DX =    0.0                 !
 ! D16   D(7,3,5,10)             0.0            -DE/DX =    0.0                 !
 ! D17   D(2,4,6,5)              0.0            -DE/DX =    0.0                 !
 ! D18   D(2,4,6,11)           180.0            -DE/DX =    0.0                 !
 ! D19   D(13,4,6,5)           180.0            -DE/DX =    0.0                 !
 ! D20   D(13,4,6,11)            0.0            -DE/DX =    0.0                 !
 ! D21   D(3,5,6,4)              0.0            -DE/DX =    0.0                 !
 ! D22   D(3,5,6,11)           180.0            -DE/DX =    0.0                 !
 ! D23   D(10,5,6,4)           180.0            -DE/DX =    0.0                 !
 ! D24   D(10,5,6,11)            0.0            -DE/DX =    0.0                 !
 --------------------------------------------------------------------------------
 GradGradGradGradGradGradGradGradGradGradGradGradGradGradGradGradGradGrad

 Leave Link  103 at Sun Aug  9 02:44:01 2020, MaxMem=   524288000 cpu:               0.0 elap:               0.0
 (Enter /home/ubuntu/g16/l9999.exe)

 ----------------------------------------------------------------------

 Electric dipole moment (input orientation):
 (Debye = 10**-18 statcoulomb cm , SI units = C m)
                  (au)            (Debye)         (10**-30 SI)
   Tot        0.145942D+01      0.370949D+01      0.123735D+02
   x          0.000000D+00      0.000000D+00      0.000000D+00
   y         -0.145942D+01     -0.370949D+01     -0.123735D+02
   z          0.000000D+00      0.000000D+00      0.000000D+00

 Dipole polarizability, Alpha (input orientation).
 (esu units = cm**3 , SI units = C**2 m**2 J**-1)
 Alpha(0;0):
               (au)            (10**-24 esu)      (10**-40 SI)
   iso        0.845654D+02      0.125313D+02      0.139429D+02
   aniso      0.795280D+02      0.117848D+02      0.131124D+02
   xx         0.779009D+02      0.115437D+02      0.128441D+02
   yx         0.356912D-04      0.528889D-05      0.588468D-05
   yy         0.133449D+03      0.197751D+02      0.220028D+02
   zx         0.000000D+00      0.000000D+00      0.000000D+00
   zy         0.000000D+00      0.000000D+00      0.000000D+00
   zz         0.423463D+02      0.627508D+01      0.698196D+01

 ----------------------------------------------------------------------

 Dipole orientation:
     6          2.35779234          0.00000016          0.64934785
     6          2.33692994          0.00000016         -1.96584414
     6         -0.00000013         -0.00000000          1.90611005
     6          0.00000022          0.00000000         -3.21901617
     6         -2.35779243         -0.00000016          0.64934753
     6         -2.33692968         -0.00000016         -1.96584445
     7         -0.00000030         -0.00000000          4.50850859
     7         -0.00000045         -0.00000000          6.61638470
     1          4.08360387          0.00000028         -3.05355148
     1         -4.12200302         -0.00000028          1.70865229
     1         -4.08360346         -0.00000028         -3.05355203
     1          4.12200279          0.00000028          1.70863395
     9          0.00000039          0.00000000         -5.72320564

 Electric dipole moment (dipole orientation):
 (Debye = 10**-18 statcoulomb cm , SI units = C m)
                  (au)            (Debye)         (10**-30 SI)
   Tot        0.145942D+01      0.370949D+01      0.123735D+02
   x          0.000000D+00      0.000000D+00      0.000000D+00
   y          0.000000D+00      0.000000D+00      0.000000D+00
   z          0.145942D+01      0.370949D+01      0.123735D+02

 Dipole polarizability, Alpha (dipole orientation).
 (esu units = cm**3 , SI units = C**2 m**2 J**-1)
 Alpha(0;0):
               (au)            (10**-24 esu)      (10**-40 SI)
   iso        0.845654D+02      0.125313D+02      0.139429D+02
   aniso      0.795280D+02      0.117848D+02      0.131124D+02
   xx         0.779009D+02      0.115437D+02      0.128441D+02
   yx         0.000000D+00      0.000000D+00      0.000000D+00
   yy         0.423463D+02      0.627508D+01      0.698196D+01
   zx        -0.394384D-04     -0.584417D-05     -0.650252D-05
   zy         0.000000D+00      0.000000D+00      0.000000D+00
   zz         0.133449D+03      0.197751D+02      0.220028D+02

 ----------------------------------------------------------------------
 1\1\GINC-192-168-10-17\Freq\UB3LYP\Aug-CC-pVDZ\C6H4F1N2(1+)\UBUNTU\09-
 Aug-2020\0\\#P Geom=AllCheck Guess=TCheck SCRF=Check GenChk UB3LYP/Aug
 -CC-pVDZ Freq\\4-FPhN2+_UB3LYP-aug-cc-pVDZ\\1,1\C,1.24769,-0.34362,0.\
 C,1.23665,1.04028,0.\C,0.,-1.00867,0.\C,0.,1.70343,0.\C,-1.24769,-0.34
 362,0.\C,-1.23665,1.04028,0.\N,0.,-2.3858,0.\N,0.,-3.50124,0.\H,2.1609
 5,1.61587,0.\H,-2.18127,-0.90418,0.\H,-2.16095,1.61587,0.\H,2.18127,-0
 .90417,0.\F,0.,3.02859,0.\\Version=ES64L-G16RevA.03\State=1-A'\HF=-440
 .1269313\S2=0.\S2-1=0.\S2A=0.\RMSD=8.553e-09\RMSF=1.645e-04\ZeroPoint=
 0.0904333\Thermal=0.0973838\Dipole=0.,-1.459424,0.\DipoleDeriv=0.03583
 77,0.3954616,0.,-0.0885974,0.5638937,0.,0.,0.,-0.0002894,-0.12483,0.46
 99603,0.,0.2254116,-0.5225236,0.,0.,0.,-0.0757756,0.1226848,0.0000005,
 0.,-0.0000004,-1.1775248,0.,0.,0.,0.0451267,0.5418051,0.0000003,0.,0.,
 1.95677,0.,0.,0.,0.2361866,0.0358411,-0.3954615,0.,0.0885998,0.5638956
 ,0.,0.,0.,-0.0002895,-0.1248313,-0.4699612,0.,-0.2254114,-0.522524,0.,
 0.,0.,-0.0757753,0.1079651,0.,0.,-0.0000006,2.1626543,0.,0.,0.,0.26142
 42,0.0812543,-0.0000001,0.,0.0000004,-0.8890996,0.,0.,0.,0.0838187,0.1
 218861,0.0193948,0.,0.0157527,0.1059441,0.,0.,0.,0.1589224,0.1218577,0
 .0006961,0.,-0.0045059,0.0723857,0.,0.,0.,0.1521931,0.1218864,-0.01939
 49,0.,-0.0157527,0.1059441,0.,0.,0.,0.1589224,0.1218579,-0.0006958,0.,
 0.0045041,0.0723862,0.,0.,0.,0.1521933,-0.1632147,0.,0.,-0.0000002,-1.
 4922016,0.,0.,0.,-0.0966577\Polar=77.9009118,0.0000357,133.4489446,0.,
 0.,42.3463118\Quadrupole=3.0081685,5.1485017,-8.1566702,0.0000112,0.,0
 .\PG=CS [SG(C6H4F1N2)]\NImag=0\\0.70075702,-0.06164925,0.71076224,0.,0
 .,0.13221402,-0.12334045,-0.02885006,0.,0.71210002,0.02714253,-0.37745
 442,0.,0.05305140,0.72883465,0.,0.,-0.06042153,0.,0.,0.12756782,-0.277
 70245,-0.04875033,0.,0.02270416,-0.05645793,0.,0.66632513,-0.07993803,
 -0.10763594,0.,-0.01684179,-0.04307763,0.,0.00000004,0.54142145,0.,0.,
 -0.05588659,0.,0.,0.00851449,0.,0.,0.11621177,0.03585245,0.07016292,0.
 ,-0.29373176,0.03416070,0.,-0.05492106,0.00000002,0.,0.68953322,0.0270
 4892,-0.03502583,0.,0.09766374,-0.13800589,0.,0.00000001,0.00979143,0.
 ,-0.00000004,0.68009894,0.,0.,0.00222909,0.,0.,-0.07213292,0.,0.,-0.00
 948185,0.,0.,0.16879520,-0.05226663,-0.01463496,0.,-0.01383176,0.02729
 041,0.,-0.27770219,0.07993808,0.,0.03585247,-0.02704888,0.,0.70074699,
 0.01463491,0.03980713,0.,0.01655049,-0.03400855,0.,0.04875054,-0.10763
 595,0.,-0.07016295,-0.03502589,0.,0.06164457,0.71076221,0.,0.,0.012158
 84,0.,0.,-0.00294828,0.,0.,-0.05588664,0.,0.,0.00222907,0.,0.,0.132215
 32,-0.01383173,-0.01655047,0.,-0.03931402,0.01181778,0.,0.02270411,0.0
 1684181,0.,-0.29373175,-0.09766379,0.,-0.12334032,0.02885004,0.,0.7120
 9985,-0.02729041,-0.03400855,0.,-0.01181780,0.05420049,0.,0.05645789,-
 0.04307763,0.,-0.03416073,-0.13800584,0.,-0.02714209,-0.37745441,0.,-0
 .05305166,0.72883429,0.,0.,-0.00294826,0.,0.,0.01051615,0.,0.,0.008514
 48,0.,0.,-0.07213282,0.,0.,-0.06042136,0.,0.,0.12756778,0.01126697,-0.
 03458745,0.,-0.00573293,-0.00633664,0.,-0.09947045,0.00000002,0.,-0.00
 902165,0.,0.,0.01126698,0.03458739,0.,-0.00573295,0.00633666,0.,0.1307
 3537,-0.03083364,-0.07772381,0.,-0.01978202,0.01782712,0.,-0.00000002,
 -0.16358373,0.,0.,-0.01703958,0.,0.03083374,-0.07772374,0.,0.01978199,
 0.01782712,0.,-0.00000004,1.62224031,0.,0.,-0.00829496,0.,0.,0.0074089
 4,0.,0.,-0.04423627,0.,0.,-0.00051104,0.,0.,-0.00829499,0.,0.,0.007408
 92,0.,0.,0.09554241,-0.00367104,0.00220419,0.,0.00114774,0.00103098,0.
 ,0.02362736,-0.00000003,0.,0.00199380,0.,0.,-0.00367106,-0.00220417,0.
 ,0.00114775,-0.00103098,0.,-0.03742984,0.00000002,0.,0.01817174,0.0165
 1136,0.01936823,0.,0.00729783,-0.00913230,0.,0.,-0.08489594,0.,0.,0.01
 031138,0.,-0.01651141,0.01936823,0.,-0.00729781,-0.00913230,0.,0.00000
 001,-1.33902761,0.,0.,1.40185549,0.,0.,0.00503226,0.,0.,-0.00177218,0.
 ,0.,0.01258266,0.,0.,0.00055757,0.,0.,0.00503226,0.,0.,-0.00177217,0.,
 0.,-0.04397560,0.,0.,0.02388705,0.00637686,0.00332262,0.,-0.27069518,-
 0.13039078,0.,0.00172561,0.00177339,0.,-0.01751299,-0.01631240,0.,-0.0
 0010195,0.00113354,0.,-0.00274354,0.00316165,0.,0.00105077,0.00001902,
 0.,-0.00033431,0.00036299,0.,0.27974637,-0.02520342,-0.01124296,0.,-0.
 13113196,-0.13528404,0.,0.00124850,-0.00343934,0.,0.01485382,0.0119006
 1,0.,0.00052811,-0.00050976,0.,0.00335381,-0.00180671,0.,-0.00159231,-
 0.00169943,0.,0.00030118,0.00020926,0.,0.13843828,0.13920674,0.,0.,0.0
 0343011,0.,0.,-0.03683200,0.,0.,0.00643554,0.,0.,0.00592113,0.,0.,-0.0
 0111886,0.,0.,0.00467018,0.,0.,0.00210889,0.,0.,-0.00071102,0.,0.,0.02
 507475,-0.00191636,0.00382854,0.,0.00075427,-0.00007307,0.,-0.01609914
 ,-0.01248075,0.,0.00043144,0.00105121,0.,-0.27320813,-0.12865945,0.,0.
 00645288,0.00300062,0.,0.00050209,-0.00311850,0.,-0.00018917,0.0015294
 2,0.,-0.00002241,-0.00007344,0.,0.28276078,0.00311552,-0.00180072,0.,0
 .00016277,-0.00049745,0.,0.01675732,0.00940049,0.,0.00169001,-0.004282
 73,0.,-0.13007399,-0.13436850,0.,-0.02599781,-0.00915239,0.,0.00025648
 ,0.00306330,0.,0.00012042,-0.00069201,0.,-0.00006705,0.00003554,0.,0.1
 3494969,0.13795491,0.,0.,0.00386977,0.,0.,-0.00163878,0.,0.,0.00321147
 ,0.,0.,0.00878209,0.,0.,-0.03674644,0.,0.,0.00597959,0.,0.,-0.00385832
 ,0.,0.,0.00075381,0.,0.,-0.00041547,0.,0.,0.02431022,-0.00010195,-0.00
 113354,0.,-0.00274354,-0.00316166,0.,0.00172561,-0.00177339,0.,-0.0175
 1301,0.01631240,0.,0.00637689,-0.00332260,0.,-0.27069515,0.13039075,0.
 ,0.00105077,-0.00001901,0.,-0.00033431,-0.00036299,0.,-0.00060650,0.00
 070168,0.,0.00064673,-0.00002548,0.,0.27974634,-0.00052811,-0.00050976
 ,0.,-0.00335381,-0.00180671,0.,-0.00124849,-0.00343935,0.,-0.01485381,
 0.01190061,0.,0.02520343,-0.01124296,0.,0.13113196,-0.13528402,0.,0.00
 159231,-0.00169942,0.,-0.00030118,0.00020926,0.,-0.00070168,0.00060801
 ,0.,0.00007499,0.00103623,0.,-0.13843830,0.13920674,0.,0.,-0.00111887,
 0.,0.,0.00467018,0.,0.,0.00643555,0.,0.,0.00592114,0.,0.,0.00343008,0.
 ,0.,-0.03683201,0.,0.,0.00210889,0.,0.,-0.00071103,0.,0.,-0.00022949,0
 .,0.,-0.00455570,0.,0.,0.02507475,-0.27321769,0.12866400,0.,0.00645282
 ,-0.00300071,0.,-0.01609880,0.01248063,0.,0.00043144,-0.00105119,0.,-0
 .00191630,-0.00382853,0.,0.00075427,0.00007308,0.,0.00050211,0.0031184
 7,0.,-0.00018917,-0.00152940,0.,0.00064676,-0.00007501,0.,-0.00049806,
 0.00063172,0.,-0.00002241,0.00007344,0.,0.28276996,0.13007812,-0.13436
 856,0.,0.02599817,-0.00915266,0.,-0.01675754,0.00940051,0.,-0.00168998
 ,-0.00428279,0.,-0.00311554,-0.00180075,0.,-0.00016278,-0.00049746,0.,
 -0.00025641,0.00306337,0.,-0.00012042,-0.00069203,0.,0.00002550,0.0010
 3623,0.,-0.00063173,0.00058887,0.,0.00006705,0.00003554,0.,-0.13495406
 ,0.13795527,0.,0.,-0.03674506,0.,0.,0.00597977,0.,0.,0.00321137,0.,0.,
 0.00878214,0.,0.,0.00386981,0.,0.,-0.00163879,0.,0.,-0.00385834,0.,0.,
 0.00075382,0.,0.,-0.00455573,0.,0.,0.00127720,0.,0.,-0.00041548,0.,0.,
 0.02430876,-0.00820500,-0.00202623,0.,0.00623064,0.04492700,0.,0.00318
 211,0.,0.,-0.07766262,0.00000001,0.,-0.00820499,0.00202622,0.,0.006230
 60,-0.04492698,0.,0.00101275,0.,0.,-0.00026949,0.,0.,0.00247052,-0.001
 34925,0.,0.00038508,-0.00151960,0.,0.00247053,0.00134924,0.,0.00038507
 ,0.00151961,0.,0.07197478,0.00691151,0.00983296,0.,0.01105303,-0.05244
 262,0.,0.,-0.01322837,0.,0.00000004,-0.35233442,0.,-0.00691149,0.00983
 295,0.,-0.01105306,-0.05244259,0.,0.,0.01447610,0.,0.,-0.00774966,0.,-
 0.00076506,0.00098584,0.,0.00060246,-0.00128555,0.,0.00076507,0.000985
 84,0.,-0.00060245,-0.00128555,0.,-0.00000002,0.44465507,0.,0.,0.006481
 19,0.,0.,0.01108833,0.,0.,0.00037403,0.,0.,-0.04895880,0.,0.,0.0064811
 8,0.,0.,0.01108831,0.,0.,-0.00154851,0.,0.,0.00034258,0.,0.,-0.0037780
 1,0.,0.,-0.00096945,0.,0.,-0.00377802,0.,0.,-0.00096946,0.,0.,0.024146
 63\\-0.00003629,-0.00020916,0.,0.00005715,0.00034451,0.,-0.00000032,0.
 00059511,0.,-0.00000003,-0.00043137,0.,0.00003869,-0.00020665,0.,-0.00
 005666,0.00034467,0.,0.,-0.00003581,0.,0.,-0.00041216,0.,0.00000432,-0
 .00000806,0.,-0.00006679,-0.00001212,0.,-0.00000432,-0.00000808,0.,0.0
 0006422,-0.00000953,0.,0.00000003,0.00004867,0.\\\@


 IT IS A CAPITAL MISTAKE TO THEORIZE BEFORE ONE HAS
 DATA.  INSENSIBLY ONE BEGINS TO TWIST FACTS TO SUIT
 THEORIES RATHER THAN THEORIES TO SUIT FACTS.

                                         -- SHERLOCK HOLMES
 Job cpu time:       0 days  1 hours  6 minutes 55.5 seconds.
 Elapsed time:       0 days  0 hours  9 minutes 33.7 seconds.
 File lengths (MBytes):  RWF=    160 Int=      0 D2E=      0 Chk=      7 Scr=      1
 Normal termination of Gaussian 16 at Sun Aug  9 02:44:02 2020.
