 Entering Gaussian System, Link 0=/home/ubuntu/g16/g16
 Input=4-HOPHN2+_UB3LYP-aug-cc-pVDZ-Opt.gjf
 Output=4-HOPHN2+_UB3LYP-aug-cc-pVDZ-Opt.log
 Initial command:
 /home/ubuntu/g16/l1.exe "/home/ubuntu/g16/Gau-4491.inp" -scrdir="/home/ubuntu/g16/"
 Entering Link 1 = /home/ubuntu/g16/l1.exe PID=      4493.
  
 Copyright (c) 1988,1990,1992,1993,1995,1998,2003,2009,2016,
            Gaussian, Inc.  All Rights Reserved.
  
 This is part of the Gaussian(R) 16 program.  It is based on
 the Gaussian(R) 09 system (copyright 2009, Gaussian, Inc.),
 the Gaussian(R) 03 system (copyright 2003, Gaussian, Inc.),
 the Gaussian(R) 98 system (copyright 1998, Gaussian, Inc.),
 the Gaussian(R) 94 system (copyright 1995, Gaussian, Inc.),
 the Gaussian 92(TM) system (copyright 1992, Gaussian, Inc.),
 the Gaussian 90(TM) system (copyright 1990, Gaussian, Inc.),
 the Gaussian 88(TM) system (copyright 1988, Gaussian, Inc.),
 the Gaussian 86(TM) system (copyright 1986, Carnegie Mellon
 University), and the Gaussian 82(TM) system (copyright 1983,
 Carnegie Mellon University). Gaussian is a federally registered
 trademark of Gaussian, Inc.
  
 This software contains proprietary and confidential information,
 including trade secrets, belonging to Gaussian, Inc.
  
 This software is provided under written license and may be
 used, copied, transmitted, or stored only in accord with that
 written license.
  
 The following legend is applicable only to US Government
 contracts under FAR:
  
                    RESTRICTED RIGHTS LEGEND
  
 Use, reproduction and disclosure by the US Government is
 subject to restrictions as set forth in subparagraphs (a)
 and (c) of the Commercial Computer Software - Restricted
 Rights clause in FAR 52.227-19.
  
 Gaussian, Inc.
 340 Quinnipiac St., Bldg. 40, Wallingford CT 06492
  
  
 ---------------------------------------------------------------
 Warning -- This program may not be used in any manner that
 competes with the business of Gaussian, Inc. or will provide
 assistance to any competitor of Gaussian, Inc.  The licensee
 of this program is prohibited from giving any competitor of
 Gaussian, Inc. access to this program.  By using this program,
 the user acknowledges that Gaussian, Inc. is engaged in the
 business of creating and licensing software in the field of
 computational chemistry and represents and warrants to the
 licensee that it is not a competitor of Gaussian, Inc. and that
 it will not use this program in any manner prohibited above.
 ---------------------------------------------------------------
  

 Cite this work as:
 Gaussian 16, Revision A.03,
 M. J. Frisch, G. W. Trucks, H. B. Schlegel, G. E. Scuseria, 
 M. A. Robb, J. R. Cheeseman, G. Scalmani, V. Barone, 
 G. A. Petersson, H. Nakatsuji, X. Li, M. Caricato, A. V. Marenich, 
 J. Bloino, B. G. Janesko, R. Gomperts, B. Mennucci, H. P. Hratchian, 
 J. V. Ortiz, A. F. Izmaylov, J. L. Sonnenberg, D. Williams-Young, 
 F. Ding, F. Lipparini, F. Egidi, J. Goings, B. Peng, A. Petrone, 
 T. Henderson, D. Ranasinghe, V. G. Zakrzewski, J. Gao, N. Rega, 
 G. Zheng, W. Liang, M. Hada, M. Ehara, K. Toyota, R. Fukuda, 
 J. Hasegawa, M. Ishida, T. Nakajima, Y. Honda, O. Kitao, H. Nakai, 
 T. Vreven, K. Throssell, J. A. Montgomery, Jr., J. E. Peralta, 
 F. Ogliaro, M. J. Bearpark, J. J. Heyd, E. N. Brothers, K. N. Kudin, 
 V. N. Staroverov, T. A. Keith, R. Kobayashi, J. Normand, 
 K. Raghavachari, A. P. Rendell, J. C. Burant, S. S. Iyengar, 
 J. Tomasi, M. Cossi, J. M. Millam, M. Klene, C. Adamo, R. Cammi, 
 J. W. Ochterski, R. L. Martin, K. Morokuma, O. Farkas, 
 J. B. Foresman, and D. J. Fox, Gaussian, Inc., Wallingford CT, 2016.
 
 ******************************************
 Gaussian 16:  ES64L-G16RevA.03 25-Dec-2016
                 9-Aug-2020 
 ******************************************
 %chk=4-HOPHN2+_UB3LYP-aug-cc-pVDZ-Opt.chk
 %mem=500MW
 %nproc=7
 Will use up to    7 processors via shared memory.
 ----------------------------------------------------------------------
 #p opt=(maxcycles=777) freq ub3lyp/aug-cc-pVDZ pop=(Bonding,AllOrbital
 s,mk,no,nboread)
 ----------------------------------------------------------------------
 1/6=777,18=20,19=15,26=3,38=1/1,3;
 2/9=110,12=2,17=6,18=5,40=1/2;
 3/5=16,7=10,11=2,25=1,30=1,71=1,74=-5,116=2/1,2,3;
 4//1;
 5/5=2,38=5/2;
 6/7=2,8=2,9=2,10=2,15=8,20=1,22=-1,27=20,28=1,31=1,40=2,96=-1/1,2,7;
 7//1,2,3,16;
 1/6=777,18=20,19=15,26=3/3(2);
 2/9=110/2;
 99//99;
 2/9=110/2;
 3/5=16,7=10,11=2,25=1,30=1,71=1,74=-5,116=2/1,2,3;
 4/5=5,16=3,69=1/1;
 5/5=2,38=5/2;
 7//1,2,3,16;
 1/6=777,18=20,19=15,26=3/3(-5);
 2/9=110/2;
 6/7=2,8=2,9=2,10=2,15=8,19=2,20=1,22=-1,27=20,28=1,31=1,40=2,96=-1/1,2,7;
 99/9=1/99;
 Leave Link    1 at Sun Aug  9 03:00:26 2020, MaxMem=   524288000 cpu:               0.3 elap:               0.0
 (Enter /home/ubuntu/g16/l101.exe)
 ----------------------------
 4-HOPHN2+_UB3LYP-aug-cc-pVDZ
 ----------------------------
 Symbolic Z-matrix:
 Charge =  1 Multiplicity = 1
 C                     1.24725   0.35568   0. 
 C                     1.23794  -1.02057   0. 
 C                     0.        1.03128   0. 
 C                     0.00594  -1.72164   0. 
 C                    -1.24248   0.35233   0. 
 C                    -1.22883  -1.02662   0. 
 N                    -0.00381   2.39771   0. 
 N                    -0.00337   3.51593   0. 
 H                     2.16636  -1.5891    0. 
 H                    -2.1789    0.90798   0. 
 H                    -2.16954  -1.57756   0. 
 H                     2.18134   0.91514   0. 
 O                     0.08898  -3.04933   0. 
 H                    -0.77977  -3.48012   0. 
 
 ITRead=  0  0  0  0  0  0  0  0  0  0  0  0  0  0
 MicOpt= -1 -1 -1 -1 -1 -1 -1 -1 -1 -1 -1 -1 -1 -1
 NAtoms=     14 NQM=       14 NQMF=       0 NMMI=      0 NMMIF=      0
                NMic=       0 NMicF=      0.
                    Isotopes and Nuclear Properties:
 (Nuclear quadrupole moments (NQMom) in fm**2, nuclear magnetic moments (NMagM)
  in nuclear magnetons)

  Atom         1           2           3           4           5           6           7           8           9          10
 IAtWgt=          12          12          12          12          12          12          14          14           1           1
 AtmWgt=  12.0000000  12.0000000  12.0000000  12.0000000  12.0000000  12.0000000  14.0030740  14.0030740   1.0078250   1.0078250
 NucSpn=           0           0           0           0           0           0           2           2           1           1
 AtZEff=  -0.0000000  -0.0000000  -0.0000000  -0.0000000  -0.0000000  -0.0000000  -0.0000000  -0.0000000  -0.0000000  -0.0000000
 NQMom=    0.0000000   0.0000000   0.0000000   0.0000000   0.0000000   0.0000000   2.0440000   2.0440000   0.0000000   0.0000000
 NMagM=    0.0000000   0.0000000   0.0000000   0.0000000   0.0000000   0.0000000   0.4037610   0.4037610   2.7928460   2.7928460
 AtZNuc=   6.0000000   6.0000000   6.0000000   6.0000000   6.0000000   6.0000000   7.0000000   7.0000000   1.0000000   1.0000000

  Atom        11          12          13          14
 IAtWgt=           1           1          16           1
 AtmWgt=   1.0078250   1.0078250  15.9949146   1.0078250
 NucSpn=           1           1           0           1
 AtZEff=  -0.0000000  -0.0000000  -0.0000000  -0.0000000
 NQMom=    0.0000000   0.0000000   0.0000000   0.0000000
 NMagM=    2.7928460   2.7928460   0.0000000   2.7928460
 AtZNuc=   1.0000000   1.0000000   8.0000000   1.0000000
 Leave Link  101 at Sun Aug  9 03:00:26 2020, MaxMem=   524288000 cpu:               1.3 elap:               0.2
 (Enter /home/ubuntu/g16/l103.exe)

 GradGradGradGradGradGradGradGradGradGradGradGradGradGradGradGradGradGrad
 Berny optimization.
 Initialization pass.
                           ----------------------------
                           !    Initial Parameters    !
                           ! (Angstroms and Degrees)  !
 --------------------------                            --------------------------
 ! Name  Definition              Value          Derivative Info.                !
 --------------------------------------------------------------------------------
 ! R1    R(1,2)                  1.3763         estimate D2E/DX2                !
 ! R2    R(1,3)                  1.4185         estimate D2E/DX2                !
 ! R3    R(1,12)                 1.0888         estimate D2E/DX2                !
 ! R4    R(2,4)                  1.4175         estimate D2E/DX2                !
 ! R5    R(2,9)                  1.0887         estimate D2E/DX2                !
 ! R6    R(3,5)                  1.4159         estimate D2E/DX2                !
 ! R7    R(3,7)                  1.3664         estimate D2E/DX2                !
 ! R8    R(4,6)                  1.4169         estimate D2E/DX2                !
 ! R9    R(4,13)                 1.3303         estimate D2E/DX2                !
 ! R10   R(5,6)                  1.379          estimate D2E/DX2                !
 ! R11   R(5,10)                 1.0889         estimate D2E/DX2                !
 ! R12   R(6,11)                 1.0902         estimate D2E/DX2                !
 ! R13   R(7,8)                  1.1182         estimate D2E/DX2                !
 ! R14   R(13,14)                0.9697         estimate D2E/DX2                !
 ! A1    A(2,1,3)              118.0556         estimate D2E/DX2                !
 ! A2    A(2,1,12)             121.3065         estimate D2E/DX2                !
 ! A3    A(3,1,12)             120.6379         estimate D2E/DX2                !
 ! A4    A(1,2,4)              120.0296         estimate D2E/DX2                !
 ! A5    A(1,2,9)              121.0942         estimate D2E/DX2                !
 ! A6    A(4,2,9)              118.8762         estimate D2E/DX2                !
 ! A7    A(1,3,5)              122.9026         estimate D2E/DX2                !
 ! A8    A(1,3,7)              118.6029         estimate D2E/DX2                !
 ! A9    A(5,3,7)              118.4945         estimate D2E/DX2                !
 ! A10   A(2,4,6)              120.9839         estimate D2E/DX2                !
 ! A11   A(2,4,13)             116.0632         estimate D2E/DX2                !
 ! A12   A(6,4,13)             122.9529         estimate D2E/DX2                !
 ! A13   A(3,5,6)              118.0871         estimate D2E/DX2                !
 ! A14   A(3,5,10)             120.6618         estimate D2E/DX2                !
 ! A15   A(6,5,10)             121.2511         estimate D2E/DX2                !
 ! A16   A(4,6,5)              119.9412         estimate D2E/DX2                !
 ! A17   A(4,6,11)             120.27           estimate D2E/DX2                !
 ! A18   A(5,6,11)             119.7888         estimate D2E/DX2                !
 ! A19   A(4,13,14)            112.7967         estimate D2E/DX2                !
 ! A20   L(3,7,8,12,-1)        179.8177         estimate D2E/DX2                !
 ! A21   L(3,7,8,12,-2)        180.0            estimate D2E/DX2                !
 ! D1    D(3,1,2,4)              0.0            estimate D2E/DX2                !
 ! D2    D(3,1,2,9)            180.0            estimate D2E/DX2                !
 ! D3    D(12,1,2,4)           180.0            estimate D2E/DX2                !
 ! D4    D(12,1,2,9)             0.0            estimate D2E/DX2                !
 ! D5    D(2,1,3,5)              0.0            estimate D2E/DX2                !
 ! D6    D(2,1,3,7)            180.0            estimate D2E/DX2                !
 ! D7    D(12,1,3,5)           180.0            estimate D2E/DX2                !
 ! D8    D(12,1,3,7)             0.0            estimate D2E/DX2                !
 ! D9    D(1,2,4,6)              0.0            estimate D2E/DX2                !
 ! D10   D(1,2,4,13)           180.0            estimate D2E/DX2                !
 ! D11   D(9,2,4,6)            180.0            estimate D2E/DX2                !
 ! D12   D(9,2,4,13)             0.0            estimate D2E/DX2                !
 ! D13   D(1,3,5,6)              0.0            estimate D2E/DX2                !
 ! D14   D(1,3,5,10)           180.0            estimate D2E/DX2                !
 ! D15   D(7,3,5,6)            180.0            estimate D2E/DX2                !
 ! D16   D(7,3,5,10)             0.0            estimate D2E/DX2                !
 ! D17   D(2,4,6,5)              0.0            estimate D2E/DX2                !
 ! D18   D(2,4,6,11)           180.0            estimate D2E/DX2                !
 ! D19   D(13,4,6,5)           180.0            estimate D2E/DX2                !
 ! D20   D(13,4,6,11)            0.0            estimate D2E/DX2                !
 ! D21   D(2,4,13,14)          180.0            estimate D2E/DX2                !
 ! D22   D(6,4,13,14)            0.0            estimate D2E/DX2                !
 ! D23   D(3,5,6,4)              0.0            estimate D2E/DX2                !
 ! D24   D(3,5,6,11)           180.0            estimate D2E/DX2                !
 ! D25   D(10,5,6,4)           180.0            estimate D2E/DX2                !
 ! D26   D(10,5,6,11)            0.0            estimate D2E/DX2                !
 --------------------------------------------------------------------------------
 Trust Radius=3.00D-01 FncErr=1.00D-07 GrdErr=1.00D-06 EigMax=2.50D+02 EigMin=1.00D-04
 Number of steps in this run=    100 maximum allowed number of steps=    100.
 GradGradGradGradGradGradGradGradGradGradGradGradGradGradGradGradGradGrad

 Leave Link  103 at Sun Aug  9 03:00:26 2020, MaxMem=   524288000 cpu:               0.0 elap:               0.0
 (Enter /home/ubuntu/g16/l202.exe)
                          Input orientation:                          
 ---------------------------------------------------------------------
 Center     Atomic      Atomic             Coordinates (Angstroms)
 Number     Number       Type             X           Y           Z
 ---------------------------------------------------------------------
      1          6           0        1.247250    0.355680    0.000000
      2          6           0        1.237940   -1.020570    0.000000
      3          6           0        0.000000    1.031280    0.000000
      4          6           0        0.005940   -1.721640    0.000000
      5          6           0       -1.242480    0.352330    0.000000
      6          6           0       -1.228830   -1.026620    0.000000
      7          7           0       -0.003810    2.397710    0.000000
      8          7           0       -0.003370    3.515930    0.000000
      9          1           0        2.166360   -1.589100    0.000000
     10          1           0       -2.178900    0.907980    0.000000
     11          1           0       -2.169540   -1.577560    0.000000
     12          1           0        2.181340    0.915140    0.000000
     13          8           0        0.088980   -3.049330    0.000000
     14          1           0       -0.779770   -3.480120    0.000000
 ---------------------------------------------------------------------
                    Distance matrix (angstroms):
                    1          2          3          4          5
     1  C    0.000000
     2  C    1.376281   0.000000
     3  C    1.418474   2.396369   0.000000
     4  C    2.419940   1.417506   2.752926   0.000000
     5  C    2.489732   2.835020   1.415885   2.420724   0.000000
     6  C    2.835794   2.466777   2.396868   1.416937   1.379018
     7  N    2.394794   3.636837   1.366435   4.119362   2.391209
     8  N    3.398710   4.703263   2.484652   5.237578   3.397611
     9  H    2.151031   1.088664   3.399927   2.164482   3.922925
    10  H    3.470380   3.923532   2.182386   3.418834   1.088866
    11  H    3.925796   3.452703   3.393074   2.180246   2.141008
    12  H    1.088816   2.153364   2.184430   3.418329   3.469769
    13  O    3.596621   2.331518   4.081580   1.330284   3.652954
    14  H    4.338453   3.181280   4.578293   1.926030   3.860282
                    6          7          8          9         10
     6  C    0.000000
     7  N    3.636854   0.000000
     8  N    4.704946   1.118220   0.000000
     9  H    3.441468   4.539195   5.546987   0.000000
    10  H    2.155298   2.636344   3.396223   5.011656   0.000000
    11  H    1.090170   4.526937   5.534974   4.335915   2.485558
    12  H    3.924244   2.640624   3.396626   2.504285   4.360246
    13  O    2.414121   5.447830   6.565909   2.539248   4.561094
    14  H    2.494257   5.928828   7.038999   3.500805   4.605756
                   11         12         13         14
    11  H    0.000000
    12  H    5.014350   0.000000
    13  O    2.695741   4.482744   0.000000
    14  H    2.356097   5.299668   0.969694   0.000000
 Stoichiometry    C6H5N2O(1+)
 Framework group  CS[SG(C6H5N2O)]
 Deg. of freedom    25
 Full point group                 CS      NOp   2
 Largest Abelian subgroup         CS      NOp   2
 Largest concise Abelian subgroup C1      NOp   1
                         Standard orientation:                         
 ---------------------------------------------------------------------
 Center     Atomic      Atomic             Coordinates (Angstroms)
 Number     Number       Type             X           Y           Z
 ---------------------------------------------------------------------
      1          6           0       -1.247250    0.355681    0.000000
      2          6           0       -1.237940   -1.020569   -0.000000
      3          6           0       -0.000000    1.031281    0.000000
      4          6           0       -0.005940   -1.721639   -0.000000
      5          6           0        1.242480    0.352331    0.000000
      6          6           0        1.228830   -1.026619   -0.000000
      7          7           0        0.003810    2.397711    0.000000
      8          7           0        0.003370    3.515931    0.000000
      9          1           0       -2.166360   -1.589099   -0.000000
     10          1           0        2.178900    0.907981    0.000000
     11          1           0        2.169540   -1.577559   -0.000000
     12          1           0       -2.181340    0.915141    0.000000
     13          8           0       -0.088981   -3.049329   -0.000000
     14          1           0        0.779769   -3.480119   -0.000000
 ---------------------------------------------------------------------
 Rotational constants (GHZ):           5.4061631           1.0156924           0.8550487
 Leave Link  202 at Sun Aug  9 03:00:26 2020, MaxMem=   524288000 cpu:               0.0 elap:               0.0
 (Enter /home/ubuntu/g16/l301.exe)
 Standard basis: Aug-CC-pVDZ (5D, 7F)
 Ernie: Thresh=  0.10000D-02 Tol=  0.10000D-05 Strict=F.
 Ernie:  18 primitive shells out of 260 were deleted.
 There are   197 symmetry adapted cartesian basis functions of A'  symmetry.
 There are    73 symmetry adapted cartesian basis functions of A"  symmetry.
 There are   179 symmetry adapted basis functions of A'  symmetry.
 There are    73 symmetry adapted basis functions of A"  symmetry.
   252 basis functions,   442 primitive gaussians,   270 cartesian basis functions
    31 alpha electrons       31 beta electrons
       nuclear repulsion energy       391.1233002478 Hartrees.
 IExCor=  402 DFT=T Ex+Corr=B3LYP ExCW=0 ScaHFX=  0.200000
 ScaDFX=  0.800000  0.720000  1.000000  0.810000 ScalE2=  1.000000  1.000000
 IRadAn=      5 IRanWt=     -1 IRanGd=            0 ICorTp=0 IEmpDi=  4
 NAtoms=   14 NActive=   14 NUniq=   14 SFac= 1.00D+00 NAtFMM=   60 NAOKFM=F Big=F
 Integral buffers will be    131072 words long.
 Raffenetti 2 integral format.
 Two-electron integral symmetry is turned on.
 Leave Link  301 at Sun Aug  9 03:00:26 2020, MaxMem=   524288000 cpu:               0.2 elap:               0.0
 (Enter /home/ubuntu/g16/l302.exe)
 NPDir=0 NMtPBC=     1 NCelOv=     1 NCel=       1 NClECP=     1 NCelD=      1
         NCelK=      1 NCelE2=     1 NClLst=     1 CellRange=     0.0.
 One-electron integrals computed using PRISM.
 One-electron integral symmetry used in STVInt
 NBasis=   252 RedAO= T EigKep=  2.43D-06  NBF=   179    73
 NBsUse=   252 1.00D-06 EigRej= -1.00D+00 NBFU=   179    73
 Precomputing XC quadrature grid using
 IXCGrd= 4 IRadAn=           5 IRanWt=          -1 IRanGd=           0 AccXCQ= 0.00D+00.
 Generated NRdTot=       0 NPtTot=           0 NUsed=           0 NTot=          32
 NSgBfM=   270   270   270   270   270 MxSgAt=    14 MxSgA2=    14.
 Leave Link  302 at Sun Aug  9 03:00:26 2020, MaxMem=   524288000 cpu:               2.0 elap:               0.3
 (Enter /home/ubuntu/g16/l303.exe)
 DipDrv:  MaxL=1.
 Leave Link  303 at Sun Aug  9 03:00:26 2020, MaxMem=   524288000 cpu:               0.3 elap:               0.0
 (Enter /home/ubuntu/g16/l401.exe)
 ExpMin= 2.97D-02 ExpMax= 1.17D+04 ExpMxC= 4.01D+02 IAcc=3 IRadAn=         5 AccDes= 0.00D+00
 Harris functional with IExCor=  402 and IRadAn=       5 diagonalized for initial guess.
 HarFok:  IExCor=  402 AccDes= 0.00D+00 IRadAn=         5 IDoV= 1 UseB2=F ITyADJ=14
 ICtDFT=  3500011 ScaDFX=  1.000000  1.000000  1.000000  1.000000
 FoFCou: FMM=F IPFlag=           0 FMFlag=      100000 FMFlg1=           0
         NFxFlg=           0 DoJE=T BraDBF=F KetDBF=T FulRan=T
         wScrn=  0.000000 ICntrl=       500 IOpCl=  0 I1Cent=   200000004 NGrid=           0
         NMat0=    1 NMatS0=      1 NMatT0=    0 NMatD0=    1 NMtDS0=    0 NMtDT0=    0
 Petite list used in FoFCou.
 Harris En= -416.159260801698    
 JPrj=0 DoOrth=F DoCkMO=F.
 Initial guess orbital symmetries:
 Alpha Orbitals:
       Occupied  (A') (A') (A') (A') (A') (A') (A') (A') (A') (A')
                 (A') (A') (A') (A') (A') (A') (A') (A') (A') (A')
                 (A') (A') (A") (A') (A") (A') (A') (A') (A") (A")
                 (A")
       Virtual   (A") (A") (A') (A") (A') (A') (A') (A') (A') (A")
                 (A') (A") (A') (A') (A") (A') (A") (A') (A') (A')
                 (A') (A') (A') (A') (A") (A") (A') (A') (A') (A")
                 (A') (A') (A') (A") (A') (A') (A') (A') (A") (A')
                 (A') (A') (A') (A") (A') (A') (A') (A') (A') (A')
                 (A") (A') (A") (A') (A') (A") (A') (A') (A') (A')
                 (A") (A') (A') (A") (A") (A') (A") (A') (A') (A')
                 (A') (A") (A") (A') (A') (A') (A") (A') (A') (A')
                 (A") (A") (A') (A') (A") (A') (A') (A') (A') (A')
                 (A') (A') (A') (A") (A") (A') (A') (A") (A") (A')
                 (A") (A') (A") (A') (A') (A") (A") (A') (A') (A')
                 (A') (A") (A") (A') (A') (A") (A') (A") (A') (A")
                 (A') (A') (A") (A') (A') (A') (A') (A") (A') (A")
                 (A') (A") (A') (A") (A') (A') (A") (A') (A") (A')
                 (A') (A') (A') (A") (A') (A") (A") (A') (A') (A")
                 (A') (A') (A") (A') (A") (A') (A') (A') (A') (A')
                 (A") (A') (A') (A') (A") (A") (A') (A') (A") (A')
                 (A") (A') (A') (A") (A') (A') (A') (A") (A') (A")
                 (A') (A') (A") (A') (A") (A') (A') (A") (A') (A")
                 (A') (A') (A') (A') (A') (A") (A') (A') (A') (A')
                 (A') (A') (A') (A') (A') (A') (A") (A') (A') (A')
                 (A') (A') (A') (A") (A") (A') (A') (A') (A') (A')
                 (A')
 Beta  Orbitals:
       Occupied  (A') (A') (A') (A') (A') (A') (A') (A') (A') (A')
                 (A') (A') (A') (A') (A') (A') (A') (A') (A') (A')
                 (A') (A') (A") (A') (A") (A') (A') (A') (A") (A")
                 (A")
       Virtual   (A") (A") (A') (A") (A') (A') (A') (A') (A') (A")
                 (A') (A") (A') (A') (A") (A') (A") (A') (A') (A')
                 (A') (A') (A') (A') (A") (A") (A') (A') (A') (A")
                 (A') (A') (A') (A") (A') (A') (A') (A') (A") (A')
                 (A') (A') (A') (A") (A') (A') (A') (A') (A') (A')
                 (A") (A') (A") (A') (A') (A") (A') (A') (A') (A')
                 (A") (A') (A') (A") (A") (A') (A") (A') (A') (A')
                 (A') (A") (A") (A') (A') (A') (A") (A') (A') (A')
                 (A") (A") (A') (A') (A") (A') (A') (A') (A') (A')
                 (A') (A') (A') (A") (A") (A') (A') (A") (A") (A')
                 (A") (A') (A") (A') (A') (A") (A") (A') (A') (A')
                 (A') (A") (A") (A') (A') (A") (A') (A") (A') (A")
                 (A') (A') (A") (A') (A') (A') (A') (A") (A') (A")
                 (A') (A") (A') (A") (A') (A') (A") (A') (A") (A')
                 (A') (A') (A') (A") (A') (A") (A") (A') (A') (A")
                 (A') (A') (A") (A') (A") (A') (A') (A') (A') (A')
                 (A") (A') (A') (A') (A") (A") (A') (A') (A") (A')
                 (A") (A') (A') (A") (A') (A') (A') (A") (A') (A")
                 (A') (A') (A") (A') (A") (A') (A') (A") (A') (A")
                 (A') (A') (A') (A') (A') (A") (A') (A') (A') (A')
                 (A') (A') (A') (A') (A') (A') (A") (A') (A') (A')
                 (A') (A') (A') (A") (A") (A') (A') (A') (A') (A')
                 (A')
 The electronic state of the initial guess is 1-A'.
 Initial guess <Sx>= 0.0000 <Sy>= 0.0000 <Sz>= 0.0000 <S**2>= 0.0000 S= 0.0000
 Leave Link  401 at Sun Aug  9 03:00:28 2020, MaxMem=   524288000 cpu:               9.4 elap:               1.4
 (Enter /home/ubuntu/g16/l502.exe)
 Integral symmetry usage will be decided dynamically.
 UHF open shell SCF:
 Using DIIS extrapolation, IDIIS=  1040.
 NGot=   524288000 LenX=   524137122 LenY=   524063781
 Requested convergence on RMS density matrix=1.00D-08 within 128 cycles.
 Requested convergence on MAX density matrix=1.00D-06.
 Requested convergence on             energy=1.00D-06.
 No special actions if energy rises.
 Fock matrices will be formed incrementally for  20 cycles.

 Cycle   1  Pass 1  IDiag  1:
 FoFJK:  IHMeth= 1 ICntrl=       0 DoSepK=F KAlg= 0 I1Cent=           0 FoldK=F
 IRaf= 980000000 NMat=       1 IRICut=       1 DoRegI=T DoRafI=F ISym2E= 1 IDoP0=0 IntGTp=1.
 FoFCou: FMM=F IPFlag=           0 FMFlag=      100000 FMFlg1=           0
         NFxFlg=           0 DoJE=F BraDBF=F KetDBF=F FulRan=T
         wScrn=  0.000000 ICntrl=         0 IOpCl=  1 I1Cent=           0 NGrid=           0
         NMat0=    1 NMatS0=      1 NMatT0=    0 NMatD0=    1 NMtDS0=    0 NMtDT0=    0
 Petite list used in FoFCou.
 E= -415.941015016961    
 DIIS: error= 2.65D-02 at cycle   1 NSaved=   1.
 NSaved= 1 IEnMin= 1 EnMin= -415.941015016961     IErMin= 1 ErrMin= 2.65D-02
 ErrMax= 2.65D-02  0.00D+00 EMaxC= 1.00D-01 BMatC= 6.91D-01 BMatP= 6.91D-01
 IDIUse=3 WtCom= 7.35D-01 WtEn= 2.65D-01
 Coeff-Com:  0.100D+01
 Coeff-En:   0.100D+01
 Coeff:      0.100D+01
 Gap=    -0.030 Goal=   None    Shift=    0.000
 Gap=    -0.030 Goal=   None    Shift=    0.000
 GapD=   -0.030 DampG=0.250 DampE=0.500 DampFc=0.2500 IDamp=-1.
 Damping current iteration by 2.50D-01
 RMSDP=6.12D-02 MaxDP=3.22D+00              OVMax= 7.92D-01

 Cycle   2  Pass 1  IDiag  1:
 RMSU=  5.37D-03    CP:  9.12D-01
 E= -415.825847756866     Delta-E=        0.115167260095 Rises=F Damp=T
 DIIS: error= 1.67D-02 at cycle   2 NSaved=   2.
 NSaved= 2 IEnMin= 1 EnMin= -415.941015016961     IErMin= 2 ErrMin= 1.67D-02
 ErrMax= 1.67D-02  0.00D+00 EMaxC= 1.00D-01 BMatC= 1.86D-01 BMatP= 6.91D-01
 IDIUse=3 WtCom= 8.33D-01 WtEn= 1.67D-01
 Coeff-Com:  0.157D+00 0.843D+00
 Coeff-En:   0.720D+00 0.280D+00
 Coeff:      0.251D+00 0.749D+00
 Gap=     0.106 Goal=   None    Shift=    0.000
 Gap=     0.106 Goal=   None    Shift=    0.000
 RMSDP=5.04D-02 MaxDP=2.96D+00 DE= 1.15D-01 OVMax= 7.86D-01

 Cycle   3  Pass 1  IDiag  1:
 RMSU=  8.87D-03    CP:  6.09D-01  2.34D+00
 E= -415.987310988609     Delta-E=       -0.161463231743 Rises=F Damp=F
 DIIS: error= 2.76D-02 at cycle   3 NSaved=   3.
 NSaved= 3 IEnMin= 3 EnMin= -415.987310988609     IErMin= 2 ErrMin= 1.67D-02
 ErrMax= 2.76D-02  0.00D+00 EMaxC= 1.00D-01 BMatC= 4.63D-01 BMatP= 1.86D-01
 IDIUse=2 WtCom= 0.00D+00 WtEn= 1.00D+00
 EnCoef did     1 forward-backward iterations
 Coeff-En:   0.225D+00 0.171D+00 0.604D+00
 Coeff:      0.225D+00 0.171D+00 0.604D+00
 Gap=     0.100 Goal=   None    Shift=    0.000
 Gap=     0.100 Goal=   None    Shift=    0.000
 RMSDP=1.12D-02 MaxDP=6.57D-01 DE=-1.61D-01 OVMax= 4.79D-01

 Cycle   4  Pass 1  IDiag  1:
 RMSU=  5.56D-03    CP:  6.59D-01  2.62D+00  4.12D-01
 E= -415.709989741624     Delta-E=        0.277321246984 Rises=F Damp=F
 DIIS: error= 5.94D-02 at cycle   4 NSaved=   4.
 NSaved= 4 IEnMin= 3 EnMin= -415.987310988609     IErMin= 2 ErrMin= 1.67D-02
 ErrMax= 5.94D-02  0.00D+00 EMaxC= 1.00D-01 BMatC= 1.44D+00 BMatP= 1.86D-01
 IDIUse=2 WtCom= 0.00D+00 WtEn= 1.00D+00
 EnCoef did     3 forward-backward iterations
 Coeff-En:   0.887D-01 0.000D+00 0.618D+00 0.293D+00
 Coeff:      0.887D-01 0.000D+00 0.618D+00 0.293D+00
 Gap=     0.122 Goal=   None    Shift=    0.000
 Gap=     0.122 Goal=   None    Shift=    0.000
 RMSDP=4.91D-03 MaxDP=2.00D-01 DE= 2.77D-01 OVMax= 3.96D-01

 Cycle   5  Pass 1  IDiag  1:
 RMSU=  2.10D-03    CP:  6.53D-01  2.09D+00  6.84D-01  6.03D-01
 E= -416.112826843224     Delta-E=       -0.402837101600 Rises=F Damp=F
 DIIS: error= 1.32D-02 at cycle   5 NSaved=   5.
 NSaved= 5 IEnMin= 5 EnMin= -416.112826843224     IErMin= 5 ErrMin= 1.32D-02
 ErrMax= 1.32D-02  0.00D+00 EMaxC= 1.00D-01 BMatC= 7.40D-02 BMatP= 1.86D-01
 IDIUse=3 WtCom= 8.68D-01 WtEn= 1.32D-01
 Coeff-Com: -0.101D+00 0.204D+00 0.278D+00-0.285D-01 0.647D+00
 Coeff-En:   0.000D+00 0.000D+00 0.946D-01 0.000D+00 0.905D+00
 Coeff:     -0.873D-01 0.177D+00 0.254D+00-0.248D-01 0.681D+00
 Gap=     0.157 Goal=   None    Shift=    0.000
 Gap=     0.157 Goal=   None    Shift=    0.000
 RMSDP=2.44D-03 MaxDP=1.28D-01 DE=-4.03D-01 OVMax= 8.33D-02

 Cycle   6  Pass 1  IDiag  1:
 RMSU=  9.01D-04    CP:  6.42D-01  2.09D+00  7.87D-01  4.31D-01  7.89D-01
 E= -416.122902299139     Delta-E=       -0.010075455915 Rises=F Damp=F
 DIIS: error= 5.07D-03 at cycle   6 NSaved=   6.
 NSaved= 6 IEnMin= 6 EnMin= -416.122902299139     IErMin= 6 ErrMin= 5.07D-03
 ErrMax= 5.07D-03  0.00D+00 EMaxC= 1.00D-01 BMatC= 1.81D-02 BMatP= 7.40D-02
 IDIUse=3 WtCom= 9.49D-01 WtEn= 5.07D-02
 Coeff-Com: -0.100D+00 0.123D+00 0.930D-01-0.354D-01 0.454D+00 0.466D+00
 Coeff-En:   0.000D+00 0.000D+00 0.000D+00 0.000D+00 0.275D+00 0.725D+00
 Coeff:     -0.951D-01 0.117D+00 0.883D-01-0.336D-01 0.445D+00 0.479D+00
 Gap=     0.157 Goal=   None    Shift=    0.000
 Gap=     0.157 Goal=   None    Shift=    0.000
 RMSDP=7.20D-04 MaxDP=2.29D-02 DE=-1.01D-02 OVMax= 2.23D-02

 Cycle   7  Pass 1  IDiag  1:
 RMSU=  3.97D-04    CP:  6.42D-01  2.16D+00  7.63D-01  4.35D-01  8.18D-01
                    CP:  5.81D-01
 E= -416.127205504791     Delta-E=       -0.004303205652 Rises=F Damp=F
 DIIS: error= 2.49D-03 at cycle   7 NSaved=   7.
 NSaved= 7 IEnMin= 7 EnMin= -416.127205504791     IErMin= 7 ErrMin= 2.49D-03
 ErrMax= 2.49D-03  0.00D+00 EMaxC= 1.00D-01 BMatC= 2.88D-03 BMatP= 1.81D-02
 IDIUse=3 WtCom= 9.75D-01 WtEn= 2.49D-02
 Coeff-Com: -0.691D-01 0.897D-01 0.221D-01-0.158D-01 0.188D+00 0.264D+00
 Coeff-Com:  0.520D+00
 Coeff-En:   0.000D+00 0.000D+00 0.000D+00 0.000D+00 0.000D+00 0.000D+00
 Coeff-En:   0.100D+01
 Coeff:     -0.674D-01 0.875D-01 0.215D-01-0.154D-01 0.184D+00 0.258D+00
 Coeff:      0.532D+00
 Gap=     0.156 Goal=   None    Shift=    0.000
 Gap=     0.156 Goal=   None    Shift=    0.000
 RMSDP=2.71D-04 MaxDP=9.63D-03 DE=-4.30D-03 OVMax= 1.17D-02

 Cycle   8  Pass 1  IDiag  1:
 RMSU=  1.75D-04    CP:  6.43D-01  2.16D+00  7.54D-01  4.44D-01  8.62D-01
                    CP:  5.61D-01  7.24D-01
 E= -416.127759551699     Delta-E=       -0.000554046908 Rises=F Damp=F
 DIIS: error= 1.85D-03 at cycle   8 NSaved=   8.
 NSaved= 8 IEnMin= 8 EnMin= -416.127759551699     IErMin= 8 ErrMin= 1.85D-03
 ErrMax= 1.85D-03  0.00D+00 EMaxC= 1.00D-01 BMatC= 1.55D-03 BMatP= 2.88D-03
 IDIUse=3 WtCom= 9.81D-01 WtEn= 1.85D-02
 Coeff-Com: -0.289D-01 0.386D-01-0.248D-01 0.719D-02-0.319D-01-0.647D-02
 Coeff-Com:  0.323D+00 0.724D+00
 Coeff-En:   0.000D+00 0.000D+00 0.000D+00 0.000D+00 0.000D+00 0.000D+00
 Coeff-En:   0.000D+00 0.100D+01
 Coeff:     -0.284D-01 0.379D-01-0.244D-01 0.706D-02-0.313D-01-0.635D-02
 Coeff:      0.317D+00 0.729D+00
 Gap=     0.155 Goal=   None    Shift=    0.000
 Gap=     0.155 Goal=   None    Shift=    0.000
 RMSDP=2.13D-04 MaxDP=8.12D-03 DE=-5.54D-04 OVMax= 8.39D-03

 Cycle   9  Pass 1  IDiag  1:
 RMSU=  7.99D-05    CP:  6.44D-01  2.17D+00  7.48D-01  4.48D-01  8.84D-01
                    CP:  5.94D-01  9.55D-01  9.14D-01
 E= -416.128182407124     Delta-E=       -0.000422855425 Rises=F Damp=F
 DIIS: error= 8.86D-04 at cycle   9 NSaved=   9.
 NSaved= 9 IEnMin= 9 EnMin= -416.128182407124     IErMin= 9 ErrMin= 8.86D-04
 ErrMax= 8.86D-04  0.00D+00 EMaxC= 1.00D-01 BMatC= 3.33D-04 BMatP= 1.55D-03
 IDIUse=3 WtCom= 9.91D-01 WtEn= 8.86D-03
 Coeff-Com: -0.397D-02 0.406D-02-0.201D-01 0.100D-01-0.584D-01-0.799D-01
 Coeff-Com: -0.101D-01 0.279D+00 0.879D+00
 Coeff-En:   0.000D+00 0.000D+00 0.000D+00 0.000D+00 0.000D+00 0.000D+00
 Coeff-En:   0.000D+00 0.000D+00 0.100D+01
 Coeff:     -0.394D-02 0.402D-02-0.199D-01 0.992D-02-0.579D-01-0.792D-01
 Coeff:     -0.100D-01 0.277D+00 0.880D+00
 Gap=     0.154 Goal=   None    Shift=    0.000
 Gap=     0.154 Goal=   None    Shift=    0.000
 RMSDP=1.44D-04 MaxDP=5.08D-03 DE=-4.23D-04 OVMax= 7.61D-03

 Cycle  10  Pass 1  IDiag  1:
 RMSU=  4.80D-05    CP:  6.45D-01  2.19D+00  7.41D-01  4.53D-01  8.90D-01
                    CP:  6.09D-01  1.03D+00  1.15D+00  1.01D+00
 E= -416.128305354541     Delta-E=       -0.000122947416 Rises=F Damp=F
 DIIS: error= 1.30D-04 at cycle  10 NSaved=  10.
 NSaved=10 IEnMin=10 EnMin= -416.128305354541     IErMin=10 ErrMin= 1.30D-04
 ErrMax= 1.30D-04  0.00D+00 EMaxC= 1.00D-01 BMatC= 1.76D-05 BMatP= 3.33D-04
 IDIUse=3 WtCom= 9.99D-01 WtEn= 1.30D-03
 Coeff-Com: -0.146D-02 0.467D-03-0.155D-02 0.212D-02-0.149D-02-0.182D-01
 Coeff-Com: -0.517D-01-0.520D-01 0.489D+00 0.635D+00
 Coeff-En:   0.000D+00 0.000D+00 0.000D+00 0.000D+00 0.000D+00 0.000D+00
 Coeff-En:   0.000D+00 0.000D+00 0.000D+00 0.100D+01
 Coeff:     -0.146D-02 0.467D-03-0.155D-02 0.212D-02-0.149D-02-0.182D-01
 Coeff:     -0.517D-01-0.519D-01 0.489D+00 0.635D+00
 Gap=     0.154 Goal=   None    Shift=    0.000
 Gap=     0.154 Goal=   None    Shift=    0.000
 RMSDP=2.63D-05 MaxDP=1.13D-03 DE=-1.23D-04 OVMax= 1.36D-03

 Cycle  11  Pass 1  IDiag  1:
 RMSU=  1.56D-05    CP:  6.45D-01  2.19D+00  7.40D-01  4.54D-01  8.92D-01
                    CP:  5.99D-01  1.04D+00  1.14D+00  1.12D+00  7.31D-01
 E= -416.128309644035     Delta-E=       -0.000004289495 Rises=F Damp=F
 DIIS: error= 3.49D-05 at cycle  11 NSaved=  11.
 NSaved=11 IEnMin=11 EnMin= -416.128309644035     IErMin=11 ErrMin= 3.49D-05
 ErrMax= 3.49D-05  0.00D+00 EMaxC= 1.00D-01 BMatC= 2.62D-06 BMatP= 1.76D-05
 IDIUse=1 WtCom= 1.00D+00 WtEn= 0.00D+00
 Coeff-Com:  0.255D-03-0.872D-04 0.145D-02-0.325D-03 0.347D-02-0.444D-02
 Coeff-Com: -0.289D-01-0.620D-01 0.156D+00 0.355D+00 0.580D+00
 Coeff:      0.255D-03-0.872D-04 0.145D-02-0.325D-03 0.347D-02-0.444D-02
 Coeff:     -0.289D-01-0.620D-01 0.156D+00 0.355D+00 0.580D+00
 Gap=     0.154 Goal=   None    Shift=    0.000
 Gap=     0.154 Goal=   None    Shift=    0.000
 RMSDP=7.57D-06 MaxDP=2.61D-04 DE=-4.29D-06 OVMax= 1.88D-04

 Cycle  12  Pass 1  IDiag  1:
 RMSU=  4.93D-06    CP:  6.45D-01  2.19D+00  7.40D-01  4.54D-01  8.93D-01
                    CP:  5.98D-01  1.04D+00  1.14D+00  1.14D+00  7.88D-01
                    CP:  7.50D-01
 E= -416.128310149286     Delta-E=       -0.000000505250 Rises=F Damp=F
 DIIS: error= 1.39D-05 at cycle  12 NSaved=  12.
 NSaved=12 IEnMin=12 EnMin= -416.128310149286     IErMin=12 ErrMin= 1.39D-05
 ErrMax= 1.39D-05  0.00D+00 EMaxC= 1.00D-01 BMatC= 1.30D-07 BMatP= 2.62D-06
 IDIUse=1 WtCom= 1.00D+00 WtEn= 0.00D+00
 Coeff-Com:  0.270D-04 0.426D-04 0.741D-03-0.233D-03 0.168D-02-0.680D-03
 Coeff-Com: -0.651D-02-0.189D-01 0.405D-01 0.104D+00 0.161D+00 0.718D+00
 Coeff:      0.270D-04 0.426D-04 0.741D-03-0.233D-03 0.168D-02-0.680D-03
 Coeff:     -0.651D-02-0.189D-01 0.405D-01 0.104D+00 0.161D+00 0.718D+00
 Gap=     0.154 Goal=   None    Shift=    0.000
 Gap=     0.154 Goal=   None    Shift=    0.000
 RMSDP=2.20D-06 MaxDP=9.66D-05 DE=-5.05D-07 OVMax= 8.03D-05

 Cycle  13  Pass 1  IDiag  1:
 RMSU=  1.36D-06    CP:  6.45D-01  2.19D+00  7.40D-01  4.54D-01  8.93D-01
                    CP:  5.98D-01  1.04D+00  1.14D+00  1.14D+00  7.98D-01
                    CP:  7.32D-01  1.07D+00
 E= -416.128310183692     Delta-E=       -0.000000034407 Rises=F Damp=F
 DIIS: error= 4.92D-06 at cycle  13 NSaved=  13.
 NSaved=13 IEnMin=13 EnMin= -416.128310183692     IErMin=13 ErrMin= 4.92D-06
 ErrMax= 4.92D-06  0.00D+00 EMaxC= 1.00D-01 BMatC= 2.53D-08 BMatP= 1.30D-07
 IDIUse=1 WtCom= 1.00D+00 WtEn= 0.00D+00
 Coeff-Com:  0.698D-05 0.117D-04 0.159D-03-0.734D-04 0.932D-04 0.570D-04
 Coeff-Com:  0.162D-02 0.481D-03-0.279D-02-0.193D-02-0.210D-01 0.434D+00
 Coeff-Com:  0.589D+00
 Coeff:      0.698D-05 0.117D-04 0.159D-03-0.734D-04 0.932D-04 0.570D-04
 Coeff:      0.162D-02 0.481D-03-0.279D-02-0.193D-02-0.210D-01 0.434D+00
 Coeff:      0.589D+00
 Gap=     0.154 Goal=   None    Shift=    0.000
 Gap=     0.154 Goal=   None    Shift=    0.000
 RMSDP=1.03D-06 MaxDP=3.41D-05 DE=-3.44D-08 OVMax= 2.66D-05

 Cycle  14  Pass 1  IDiag  1:
 RMSU=  5.70D-07    CP:  6.45D-01  2.19D+00  7.40D-01  4.54D-01  8.92D-01
                    CP:  5.98D-01  1.04D+00  1.13D+00  1.14D+00  7.99D-01
                    CP:  7.47D-01  1.08D+00  6.41D-01
 E= -416.128310190126     Delta-E=       -0.000000006434 Rises=F Damp=F
 DIIS: error= 1.22D-06 at cycle  14 NSaved=  14.
 NSaved=14 IEnMin=14 EnMin= -416.128310190126     IErMin=14 ErrMin= 1.22D-06
 ErrMax= 1.22D-06  0.00D+00 EMaxC= 1.00D-01 BMatC= 1.38D-09 BMatP= 2.53D-08
 IDIUse=1 WtCom= 1.00D+00 WtEn= 0.00D+00
 Coeff-Com:  0.163D-05-0.168D-05 0.117D-04-0.145D-04-0.915D-04 0.117D-03
 Coeff-Com:  0.121D-02 0.151D-02-0.410D-02-0.841D-02-0.229D-01 0.976D-01
 Coeff-Com:  0.239D+00 0.696D+00
 Coeff:      0.163D-05-0.168D-05 0.117D-04-0.145D-04-0.915D-04 0.117D-03
 Coeff:      0.121D-02 0.151D-02-0.410D-02-0.841D-02-0.229D-01 0.976D-01
 Coeff:      0.239D+00 0.696D+00
 Gap=     0.154 Goal=   None    Shift=    0.000
 Gap=     0.154 Goal=   None    Shift=    0.000
 RMSDP=4.35D-07 MaxDP=1.96D-05 DE=-6.43D-09 OVMax= 7.99D-06

 Cycle  15  Pass 1  IDiag  1:
 RMSU=  2.16D-07    CP:  6.45D-01  2.19D+00  7.40D-01  4.54D-01  8.92D-01
                    CP:  5.98D-01  1.04D+00  1.13D+00  1.14D+00  8.00D-01
                    CP:  7.46D-01  1.09D+00  6.69D-01  9.27D-01
 E= -416.128310190476     Delta-E=       -0.000000000350 Rises=F Damp=F
 DIIS: error= 3.17D-07 at cycle  15 NSaved=  15.
 NSaved=15 IEnMin=15 EnMin= -416.128310190476     IErMin=15 ErrMin= 3.17D-07
 ErrMax= 3.17D-07  0.00D+00 EMaxC= 1.00D-01 BMatC= 2.25D-10 BMatP= 1.38D-09
 IDIUse=1 WtCom= 1.00D+00 WtEn= 0.00D+00
 Coeff-Com: -0.180D-05-0.966D-06-0.664D-05-0.238D-05-0.474D-04 0.994D-04
 Coeff-Com:  0.580D-03 0.811D-03-0.226D-02-0.485D-02-0.119D-01 0.490D-02
 Coeff-Com:  0.768D-01 0.430D+00 0.506D+00
 Coeff:     -0.180D-05-0.966D-06-0.664D-05-0.238D-05-0.474D-04 0.994D-04
 Coeff:      0.580D-03 0.811D-03-0.226D-02-0.485D-02-0.119D-01 0.490D-02
 Coeff:      0.768D-01 0.430D+00 0.506D+00
 Gap=     0.154 Goal=   None    Shift=    0.000
 Gap=     0.154 Goal=   None    Shift=    0.000
 RMSDP=1.44D-07 MaxDP=5.84D-06 DE=-3.50D-10 OVMax= 3.00D-06

 Cycle  16  Pass 1  IDiag  1:
 RMSU=  6.62D-08    CP:  6.45D-01  2.19D+00  7.40D-01  4.54D-01  8.92D-01
                    CP:  5.98D-01  1.04D+00  1.13D+00  1.14D+00  8.00D-01
                    CP:  7.47D-01  1.10D+00  6.82D-01  9.50D-01  7.07D-01
 E= -416.128310190552     Delta-E=       -0.000000000076 Rises=F Damp=F
 DIIS: error= 6.77D-08 at cycle  16 NSaved=  16.
 NSaved=16 IEnMin=16 EnMin= -416.128310190552     IErMin=16 ErrMin= 6.77D-08
 ErrMax= 6.77D-08  0.00D+00 EMaxC= 1.00D-01 BMatC= 5.26D-12 BMatP= 2.25D-10
 IDIUse=1 WtCom= 1.00D+00 WtEn= 0.00D+00
 Coeff-Com: -0.407D-06 0.628D-06-0.218D-05 0.204D-06-0.778D-06 0.989D-05
 Coeff-Com:  0.965D-05-0.311D-04 0.221D-04 0.280D-04-0.255D-03-0.888D-02
 Coeff-Com: -0.585D-02 0.196D-01 0.112D+00 0.883D+00
 Coeff:     -0.407D-06 0.628D-06-0.218D-05 0.204D-06-0.778D-06 0.989D-05
 Coeff:      0.965D-05-0.311D-04 0.221D-04 0.280D-04-0.255D-03-0.888D-02
 Coeff:     -0.585D-02 0.196D-01 0.112D+00 0.883D+00
 Gap=     0.154 Goal=   None    Shift=    0.000
 Gap=     0.154 Goal=   None    Shift=    0.000
 RMSDP=2.77D-08 MaxDP=7.29D-07 DE=-7.57D-11 OVMax= 7.88D-07

 Cycle  17  Pass 1  IDiag  1:
 RMSU=  1.13D-08    CP:  6.45D-01  2.19D+00  7.40D-01  4.54D-01  8.92D-01
                    CP:  5.98D-01  1.04D+00  1.13D+00  1.14D+00  8.00D-01
                    CP:  7.47D-01  1.10D+00  6.87D-01  9.57D-01  7.34D-01
                    CP:  8.86D-01
 E= -416.128310190563     Delta-E=       -0.000000000011 Rises=F Damp=F
 DIIS: error= 3.63D-08 at cycle  17 NSaved=  17.
 NSaved=17 IEnMin=17 EnMin= -416.128310190563     IErMin=17 ErrMin= 3.63D-08
 ErrMax= 3.63D-08  0.00D+00 EMaxC= 1.00D-01 BMatC= 6.88D-13 BMatP= 5.26D-12
 IDIUse=1 WtCom= 1.00D+00 WtEn= 0.00D+00
 Coeff-Com: -0.472D-07 0.618D-07-0.255D-06 0.839D-07 0.208D-05-0.555D-06
 Coeff-Com: -0.111D-04-0.484D-04 0.684D-04 0.186D-03 0.322D-03-0.175D-02
 Coeff-Com: -0.319D-02-0.955D-02 0.472D-02 0.195D+00 0.815D+00
 Coeff:     -0.472D-07 0.618D-07-0.255D-06 0.839D-07 0.208D-05-0.555D-06
 Coeff:     -0.111D-04-0.484D-04 0.684D-04 0.186D-03 0.322D-03-0.175D-02
 Coeff:     -0.319D-02-0.955D-02 0.472D-02 0.195D+00 0.815D+00
 Gap=     0.154 Goal=   None    Shift=    0.000
 Gap=     0.154 Goal=   None    Shift=    0.000
 RMSDP=7.70D-09 MaxDP=3.04D-07 DE=-1.10D-11 OVMax= 2.25D-07

 SCF Done:  E(UB3LYP) =  -416.128310191     A.U. after   17 cycles
            NFock= 17  Conv=0.77D-08     -V/T= 2.0063
 <Sx>= 0.0000 <Sy>= 0.0000 <Sz>= 0.0000 <S**2>=-0.0000 S=-0.0000
 <L.S>= 0.000000000000E+00
 KE= 4.135231945968D+02 PE=-1.738908240465D+03 EE= 5.181334354295D+02
 Annihilation of the first spin contaminant:
 S**2 before annihilation    -0.0000,   after     0.0000
 Leave Link  502 at Sun Aug  9 03:02:30 2020, MaxMem=   524288000 cpu:             857.6 elap:             122.5
 (Enter /home/ubuntu/g16/l601.exe)
 Copying SCF densities to generalized density rwf, IOpCl= 1 IROHF=0.

 **********************************************************************

            Population analysis using the SCF density.

 **********************************************************************

 Orbital symmetries:
 Alpha Orbitals:
       Occupied  (A') (A') (A') (A') (A') (A') (A') (A') (A') (A')
                 (A') (A') (A') (A') (A') (A') (A') (A') (A') (A")
                 (A') (A') (A') (A') (A') (A") (A') (A") (A') (A")
                 (A")
       Virtual   (A") (A') (A") (A") (A') (A') (A') (A') (A') (A")
                 (A') (A") (A') (A") (A') (A') (A') (A") (A') (A')
                 (A') (A') (A") (A") (A') (A') (A') (A') (A") (A')
                 (A') (A") (A') (A') (A") (A') (A') (A') (A') (A')
                 (A') (A') (A") (A') (A') (A') (A') (A") (A') (A')
                 (A') (A") (A") (A') (A') (A') (A') (A') (A') (A")
                 (A") (A') (A') (A') (A") (A') (A') (A") (A') (A')
                 (A") (A') (A") (A') (A') (A") (A') (A') (A') (A")
                 (A') (A') (A") (A") (A') (A') (A') (A') (A') (A')
                 (A') (A') (A") (A') (A') (A") (A") (A") (A') (A')
                 (A") (A") (A') (A') (A') (A") (A") (A') (A') (A')
                 (A') (A") (A") (A") (A') (A') (A") (A') (A') (A")
                 (A') (A') (A") (A') (A') (A") (A') (A') (A") (A')
                 (A") (A') (A') (A") (A") (A') (A') (A') (A") (A')
                 (A') (A') (A") (A') (A') (A") (A') (A") (A') (A')
                 (A") (A') (A') (A') (A") (A") (A') (A') (A') (A')
                 (A') (A") (A') (A') (A") (A") (A') (A') (A") (A')
                 (A") (A') (A') (A") (A') (A') (A") (A') (A') (A")
                 (A") (A') (A") (A') (A') (A') (A') (A') (A") (A')
                 (A') (A") (A') (A") (A') (A') (A') (A') (A') (A')
                 (A') (A') (A') (A') (A') (A") (A') (A') (A') (A')
                 (A') (A') (A') (A') (A") (A") (A') (A') (A') (A')
                 (A')
 Beta  Orbitals:
       Occupied  (A') (A') (A') (A') (A') (A') (A') (A') (A') (A')
                 (A') (A') (A') (A') (A') (A') (A') (A') (A') (A")
                 (A') (A') (A') (A') (A') (A") (A') (A") (A') (A")
                 (A")
       Virtual   (A") (A') (A") (A") (A') (A') (A') (A') (A') (A")
                 (A') (A") (A') (A") (A') (A') (A') (A") (A') (A')
                 (A') (A') (A") (A") (A') (A') (A') (A') (A") (A')
                 (A') (A") (A') (A') (A") (A') (A') (A') (A') (A')
                 (A') (A') (A") (A') (A') (A') (A') (A") (A') (A')
                 (A') (A") (A") (A') (A') (A') (A') (A') (A') (A")
                 (A") (A') (A') (A') (A") (A') (A') (A") (A') (A')
                 (A") (A') (A") (A') (A') (A") (A') (A') (A') (A")
                 (A') (A') (A") (A") (A') (A') (A') (A') (A') (A')
                 (A') (A') (A") (A') (A') (A") (A") (A") (A') (A')
                 (A") (A") (A') (A') (A') (A") (A") (A') (A') (A')
                 (A') (A") (A") (A") (A') (A') (A") (A') (A') (A")
                 (A') (A') (A") (A') (A') (A") (A') (A') (A") (A')
                 (A") (A') (A') (A") (A") (A') (A') (A') (A") (A')
                 (A') (A') (A") (A') (A') (A") (A') (A") (A') (A')
                 (A") (A') (A') (A') (A") (A") (A') (A') (A') (A')
                 (A') (A") (A') (A') (A") (A") (A') (A') (A") (A')
                 (A") (A') (A') (A") (A') (A') (A") (A') (A') (A")
                 (A") (A') (A") (A') (A') (A') (A') (A') (A") (A')
                 (A') (A") (A') (A") (A') (A') (A') (A') (A') (A')
                 (A') (A') (A') (A') (A') (A") (A') (A') (A') (A')
                 (A') (A') (A') (A') (A") (A") (A') (A') (A') (A')
                 (A')
 The electronic state is 1-A'.
     Natural Orbital Coefficients:
                           1         2         3         4         5
     Eigenvalues --     2.00000   2.00000   2.00000   2.00000   2.00000
   1 1   C  1S         -0.00790   0.03991   0.00000  -0.05620   0.00000
   2        2S         -0.01589  -0.05903   0.00000   0.13262   0.00000
   3        3S         -0.00152   0.01408   0.00000   0.19155   0.00000
   4        4S          1.64292   0.72079  -0.00000  -0.06796  -0.00000
   5        5PX         0.09436   0.27192  -0.00000  -0.01415  -0.00000
   6        5PY        -0.11184   0.08722   0.00000   0.10979   0.00000
   7        5PZ        -0.00000   0.00000   0.14065   0.00000   0.00505
   8        6PX        -0.00110  -0.08960   0.00000   0.21986   0.00000
   9        6PY         0.08033   0.17008   0.00000   0.29806   0.00000
  10        6PZ        -0.00000  -0.00000   0.08140  -0.00000  -0.01696
  11        7PX         0.22712   0.18810  -0.00000  -0.03644  -0.00000
  12        7PY        -0.14298   0.05241   0.00000  -0.14323   0.00000
  13        7PZ        -0.00000   0.00000   0.00623  -0.00000  -0.00460
  14        8D 0       -0.00400  -0.00137   0.00000  -0.00256   0.00000
  15        8D+1        0.00000  -0.00000   0.00589   0.00000   0.00470
  16        8D-1        0.00000  -0.00000  -0.00739  -0.00000   0.00267
  17        8D+2       -0.00983   0.01305   0.00000   0.00323   0.00000
  18        8D-2        0.01649   0.01526  -0.00000   0.00718  -0.00000
  19        9D 0       -0.00411  -0.00142   0.00000   0.00051   0.00000
  20        9D+1       -0.00000   0.00000  -0.00236  -0.00000  -0.01133
  21        9D-1        0.00000   0.00000  -0.00745   0.00000   0.01438
  22        9D+2        0.04004  -0.02271  -0.00000   0.05560  -0.00000
  23        9D-2       -0.10578  -0.02629   0.00000   0.13199   0.00000
  24 2   C  1S          0.00843   0.14931   0.00000  -0.03766   0.00000
  25        2S          0.23522  -0.04682  -0.00000  -0.02560  -0.00000
  26        3S          0.24002   0.00145  -0.00000  -0.10829  -0.00000
  27        4S         -1.85150  -0.54204   0.00000  -0.10536   0.00000
  28        5PX        -0.17149   0.00850   0.00000  -0.09107   0.00000
  29        5PY        -0.05389  -0.10278   0.00000  -0.02101   0.00000
  30        5PZ        -0.00000   0.00000   0.18295   0.00000  -0.00397
  31        6PX         0.15306   0.04526  -0.00000  -0.12767  -0.00000
  32        6PY         0.02531   0.09711   0.00000   0.30051  -0.00000
  33        6PZ        -0.00000   0.00000   0.07752   0.00000   0.00596
  34        7PX        -0.23700  -0.14749   0.00000   0.01950   0.00000
  35        7PY        -0.12161   0.02502   0.00000  -0.12256   0.00000
  36        7PZ         0.00000   0.00000   0.00224   0.00000   0.00194
  37        8D 0       -0.00264  -0.00019  -0.00000  -0.00030  -0.00000
  38        8D+1       -0.00000  -0.00000   0.01365   0.00000   0.00190
  39        8D-1       -0.00000   0.00000   0.00109  -0.00000  -0.00100
  40        8D+2        0.00080   0.00502   0.00000  -0.00956  -0.00000
  41        8D-2        0.01828   0.01132  -0.00000   0.00022  -0.00000
  42        9D 0        0.00495   0.00329  -0.00000   0.00490  -0.00000
  43        9D+1        0.00000  -0.00000   0.00096   0.00000  -0.00122
  44        9D-1        0.00000  -0.00000  -0.01997   0.00000  -0.00151
  45        9D+2       -0.04377  -0.00089   0.00000  -0.04906   0.00000
  46        9D-2       -0.19535   0.04287   0.00000   0.09548   0.00000
  47 3   C  1S          0.12032  -0.02194  -0.00000   0.10381   0.00000
  48        2S          0.06585   0.19107  -0.00000   0.00638  -0.00000
  49        3S          0.28426   0.25913  -0.00000  -0.15714  -0.00000
  50        4S         -1.34945  -0.97198   0.00000  -0.19826   0.00000
  51        5PX        -0.01404  -0.09335  -0.00000  -0.16959  -0.00000
  52        5PY         0.00129  -0.15551  -0.00000  -0.01383   0.00000
  53        5PZ         0.00000  -0.00000   0.10041  -0.00000   0.12424
  54        6PX         0.06685  -0.01486   0.00000   0.40571   0.00000
  55        6PY        -0.11528  -0.08500   0.00000   0.00521   0.00000
  56        6PZ         0.00000  -0.00000   0.04301   0.00000   0.03095
  57        7PX         0.17363   0.10006  -0.00000  -0.28403  -0.00000
  58        7PY         0.27461   0.04713  -0.00000   0.03939  -0.00000
  59        7PZ         0.00000  -0.00000  -0.00461   0.00000   0.00318
  60        8D 0       -0.00007   0.00248   0.00000   0.00101   0.00000
  61        8D+1        0.00000  -0.00000  -0.00189  -0.00000   0.00130
  62        8D-1        0.00000  -0.00000  -0.01139   0.00000   0.02416
  63        8D+2       -0.01707   0.00532   0.00000   0.00149   0.00000
  64        8D-2        0.00408   0.00030  -0.00000   0.00065  -0.00000
  65        9D 0        0.01455   0.01145  -0.00000  -0.00111  -0.00000
  66        9D+1        0.00000  -0.00000  -0.00355   0.00000  -0.00022
  67        9D-1       -0.00000  -0.00000  -0.00292  -0.00000  -0.03957
  68        9D+2        0.05682  -0.11343  -0.00000  -0.03154  -0.00000
  69        9D-2       -0.03058  -0.00041  -0.00000  -0.11664  -0.00000
  70 4   C  1S         -0.01744  -0.07217  -0.00000   0.00206  -0.00000
  71        2S         -0.13406   0.04719   0.00000  -0.06071   0.00000
  72        3S         -0.56540   0.34252   0.00000  -0.02975   0.00000
  73        4S          1.31423   0.33810  -0.00000   0.45102  -0.00000
  74        5PX        -0.03847  -0.01435   0.00000  -0.07229   0.00000
  75        5PY         0.06821  -0.05070  -0.00000  -0.19165   0.00000
  76        5PZ        -0.00000   0.00000   0.31376   0.00000   0.05473
  77        6PX         0.06986   0.13235   0.00000  -0.38883   0.00000
  78        6PY        -0.07788  -0.03328   0.00000  -0.11984   0.00000
  79        6PZ        -0.00000  -0.00000   0.12761  -0.00000   0.01953
  80        7PX        -0.29285  -0.15045   0.00000   0.23976   0.00000
  81        7PY         0.34833   0.07332  -0.00000   0.05897  -0.00000
  82        7PZ        -0.00000   0.00000  -0.00869  -0.00000  -0.00794
  83        8D 0        0.00238  -0.00203  -0.00000  -0.00717   0.00000
  84        8D+1        0.00000   0.00000  -0.00272   0.00000   0.00058
  85        8D-1       -0.00000   0.00000  -0.01140   0.00000  -0.00674
  86        8D+2        0.02663  -0.00496  -0.00000  -0.01324  -0.00000
  87        8D-2       -0.01712   0.00848   0.00000   0.01802   0.00000
  88        9D 0       -0.01353   0.00040   0.00000  -0.01012   0.00000
  89        9D+1       -0.00000   0.00000   0.01323  -0.00000   0.00390
  90        9D-1       -0.00000   0.00000   0.03324  -0.00000   0.00251
  91        9D+2       -0.07094   0.06840   0.00000   0.07729   0.00000
  92        9D-2       -0.01856   0.05256   0.00000  -0.09511   0.00000
  93 5   C  1S          0.01569   0.01196   0.00000   0.03018  -0.00000
  94        2S         -0.07457  -0.10570  -0.00000  -0.02624  -0.00000
  95        3S         -0.06439  -0.06293  -0.00000  -0.12008  -0.00000
  96        4S          1.37080   0.58467  -0.00000   0.61146  -0.00000
  97        5PX        -0.09154  -0.18513   0.00000   0.02753   0.00000
  98        5PY        -0.07208   0.03766   0.00000  -0.20431   0.00000
  99        5PZ         0.00000  -0.00000   0.10133   0.00000   0.03032
 100        6PX         0.15751   0.09775  -0.00000   0.20181  -0.00000
 101        6PY        -0.04814   0.12942   0.00000  -0.13931   0.00000
 102        6PZ         0.00000  -0.00000   0.06326  -0.00000  -0.00220
 103        7PX        -0.10484  -0.07152   0.00000  -0.11792   0.00000
 104        7PY        -0.33431  -0.08834   0.00000   0.03037   0.00000
 105        7PZ         0.00000  -0.00000   0.00209  -0.00000  -0.00428
 106        8D 0        0.00004   0.00145   0.00000   0.00074   0.00000
 107        8D+1       -0.00000   0.00000  -0.00559  -0.00000  -0.00479
 108        8D-1        0.00000  -0.00000  -0.00576   0.00000   0.00153
 109        8D+2       -0.00316   0.01507   0.00000  -0.00721   0.00000
 110        8D-2       -0.01446  -0.00274   0.00000  -0.00475   0.00000
 111        9D 0       -0.00415  -0.00519   0.00000  -0.00167   0.00000
 112        9D+1        0.00000  -0.00000  -0.00313   0.00000   0.01011
 113        9D-1        0.00000   0.00000  -0.00686  -0.00000   0.01506
 114        9D+2       -0.01307  -0.01093   0.00000  -0.01010   0.00000
 115        9D-2        0.07550   0.01940  -0.00000   0.05375  -0.00000
 116 6   C  1S          0.01790   0.07962  -0.00000  -0.03764  -0.00000
 117        2S          0.04572  -0.13197  -0.00000   0.12432  -0.00000
 118        3S          0.00918  -0.16866  -0.00000   0.19410  -0.00000
 119        4S         -1.27838  -0.24633   0.00000  -0.71934   0.00000
 120        5PX         0.12193  -0.11096  -0.00000   0.20578  -0.00000
 121        5PY        -0.01276  -0.03050   0.00000   0.08888   0.00000
 122        5PZ        -0.00000   0.00000   0.14953  -0.00000   0.01881
 123        6PX        -0.12502   0.13098   0.00000  -0.20689   0.00000
 124        6PY        -0.02914   0.12380   0.00000  -0.03450   0.00000
 125        6PZ        -0.00000   0.00000   0.03985  -0.00000   0.01461
 126        7PX         0.10117   0.02785  -0.00000   0.14766  -0.00000
 127        7PY        -0.35861  -0.15815   0.00000   0.07470   0.00000
 128        7PZ        -0.00000   0.00000   0.00360   0.00000   0.00403
 129        8D 0        0.00074   0.00397   0.00000   0.00086   0.00000
 130        8D+1        0.00000   0.00000  -0.01367   0.00000  -0.00211
 131        8D-1       -0.00000  -0.00000  -0.00107  -0.00000   0.00029
 132        8D+2        0.00454   0.00210  -0.00000  -0.01092   0.00000
 133        8D-2       -0.01623  -0.00327   0.00000  -0.00578   0.00000
 134        9D 0        0.00058   0.00577   0.00000   0.00910   0.00000
 135        9D+1       -0.00000  -0.00000   0.00870  -0.00000   0.00369
 136        9D-1        0.00000  -0.00000  -0.01608   0.00000   0.00081
 137        9D+2        0.02108  -0.01510  -0.00000   0.08011  -0.00000
 138        9D-2        0.07408  -0.10552  -0.00000   0.09424  -0.00000
 139 7   N  1S         -0.07665   0.00779   0.00000   0.11231   0.00000
 140        2S          0.07737  -0.08358  -0.00000  -0.05505  -0.00000
 141        3S          0.10031  -0.18300  -0.00000  -0.11394  -0.00000
 142        4S          0.13200   0.20554  -0.00000  -0.03058  -0.00000
 143        5PX         0.03502  -0.03734  -0.00000  -0.00432  -0.00000
 144        5PY        -0.01514   0.01883  -0.00000  -0.01598  -0.00000
 145        5PZ         0.00000  -0.00000  -0.10608  -0.00000   0.48655
 146        6PX         0.02134  -0.01853  -0.00000   0.02268  -0.00000
 147        6PY        -0.06157   0.00005   0.00000  -0.03408   0.00000
 148        6PZ         0.00000   0.00000  -0.05827   0.00000   0.26787
 149        7PX         0.00285   0.00647   0.00000   0.04793   0.00000
 150        7PY        -0.11069  -0.05208   0.00000  -0.01381   0.00000
 151        7PZ         0.00000  -0.00000  -0.00009  -0.00000   0.02224
 152        8D 0       -0.00172  -0.00099   0.00000  -0.00027   0.00000
 153        8D+1        0.00000   0.00000  -0.00015   0.00000   0.00002
 154        8D-1       -0.00000   0.00000  -0.01133   0.00000   0.01904
 155        8D+2       -0.00369  -0.00393   0.00000  -0.00091   0.00000
 156        8D-2        0.00274   0.00256   0.00000   0.00630   0.00000
 157        9D 0        0.00736  -0.02108  -0.00000   0.00149  -0.00000
 158        9D+1       -0.00000  -0.00000   0.00025  -0.00000   0.00020
 159        9D-1       -0.00000  -0.00000  -0.01650  -0.00000  -0.01145
 160        9D+2        0.01174  -0.02061  -0.00000   0.00118  -0.00000
 161        9D-2        0.00327   0.00797   0.00000   0.03008   0.00000
 162 8   N  1S         -0.05784  -0.05531   0.00000  -0.19190   0.00000
 163        2S          0.01373   0.08894   0.00000   0.07711   0.00000
 164        3S          0.04794   0.12536  -0.00000   0.16684  -0.00000
 165        4S          0.07267   0.02185  -0.00000   0.06283  -0.00000
 166        5PX         0.03405  -0.00597  -0.00000   0.03580  -0.00000
 167        5PY        -0.03231   0.07991   0.00000   0.10046   0.00000
 168        5PZ        -0.00000   0.00000  -0.12896   0.00000   0.37608
 169        6PX         0.01430  -0.00418  -0.00000  -0.00749  -0.00000
 170        6PY        -0.03045   0.01091   0.00000   0.00964   0.00000
 171        6PZ        -0.00000   0.00000  -0.05320   0.00000   0.17057
 172        7PX        -0.00431  -0.00259   0.00000  -0.00473   0.00000
 173        7PY        -0.01052   0.00193   0.00000  -0.01153   0.00000
 174        7PZ        -0.00000   0.00000  -0.00404   0.00000  -0.00165
 175        8D 0       -0.00160   0.00290   0.00000   0.00357   0.00000
 176        8D+1        0.00000  -0.00000  -0.00001   0.00000   0.00002
 177        8D-1        0.00000   0.00000   0.00978   0.00000  -0.03808
 178        8D+2       -0.00314   0.00510   0.00000   0.00646   0.00000
 179        8D-2       -0.00290   0.00227   0.00000  -0.00068   0.00000
 180        9D 0       -0.00311  -0.00236   0.00000  -0.00361   0.00000
 181        9D+1        0.00000   0.00000  -0.00015   0.00000   0.00004
 182        9D-1        0.00000  -0.00000  -0.00189  -0.00000  -0.00958
 183        9D+2       -0.00479  -0.00777   0.00000  -0.00530   0.00000
 184        9D-2        0.00015   0.00190   0.00000   0.01012   0.00000
 185 9   H  1S          0.28032   0.02938  -0.00000   0.04718  -0.00000
 186        2S          0.59686   0.10790  -0.00000  -0.01876  -0.00000
 187        3S         -0.06998  -0.03198   0.00000   0.00234   0.00000
 188        4PX         0.01319  -0.00030  -0.00000   0.00269  -0.00000
 189        4PY         0.01071  -0.00284  -0.00000   0.00094  -0.00000
 190        4PZ        -0.00000  -0.00000   0.00598  -0.00000  -0.00042
 191        5PX         0.11481   0.02049  -0.00000  -0.00909  -0.00000
 192        5PY         0.05015   0.02617  -0.00000   0.00768  -0.00000
 193        5PZ         0.00000   0.00000  -0.00411   0.00000  -0.00327
 194 10  H  1S         -0.14306  -0.15445   0.00000  -0.09467   0.00000
 195        2S         -0.32861  -0.19085   0.00000  -0.23065   0.00000
 196        3S          0.06979   0.03054  -0.00000   0.03163  -0.00000
 197        4PX         0.00635   0.00842   0.00000   0.00545  -0.00000
 198        4PY         0.00328   0.00780  -0.00000  -0.00131  -0.00000
 199        4PZ         0.00000  -0.00000   0.00307   0.00000   0.00086
 200        5PX         0.06783   0.04262  -0.00000   0.04100  -0.00000
 201        5PY         0.03124   0.00388  -0.00000   0.03321  -0.00000
 202        5PZ        -0.00000   0.00000  -0.00037   0.00000  -0.00683
 203 11  H  1S          0.12555  -0.13142  -0.00000   0.17426  -0.00000
 204        2S          0.29765  -0.17638  -0.00000   0.27593  -0.00000
 205        3S         -0.06944  -0.03586   0.00000  -0.03329   0.00000
 206        4PX        -0.00452   0.00780   0.00000  -0.00879   0.00000
 207        4PY         0.00204  -0.00570  -0.00000   0.01005  -0.00000
 208        4PZ        -0.00000  -0.00000   0.00487  -0.00000   0.00040
 209        5PX        -0.06740   0.03976   0.00000  -0.06605   0.00000
 210        5PY         0.02144   0.00123  -0.00000  -0.00328  -0.00000
 211        5PZ         0.00000   0.00000  -0.00550   0.00000  -0.00296
 212 12  H  1S         -0.13391  -0.18824   0.00000   0.11615   0.00000
 213        2S         -0.39256  -0.28801   0.00000   0.16807   0.00000
 214        3S          0.06755   0.03152  -0.00000   0.00208  -0.00000
 215        4PX        -0.00467  -0.00667   0.00000   0.00900   0.00000
 216        4PY         0.00067   0.00924   0.00000  -0.00283  -0.00000
 217        4PZ        -0.00000  -0.00000   0.00442   0.00000  -0.00006
 218        5PX        -0.07791  -0.06904   0.00000   0.03272   0.00000
 219        5PY         0.03915   0.01320  -0.00000  -0.00215  -0.00000
 220        5PZ        -0.00000   0.00000  -0.00127   0.00000  -0.00778
 221 13  O  1S          0.06457   0.06802  -0.00000   0.15746  -0.00000
 222        2S         -0.03718  -0.02402  -0.00000   0.06934  -0.00000
 223        3S         -0.08048  -0.01436   0.00000   0.09573   0.00000
 224        4S         -0.10649  -0.02082   0.00000  -0.03903   0.00000
 225        5PX         0.15645  -0.10339  -0.00000  -0.20614  -0.00000
 226        5PY        -0.17041   0.10394   0.00000   0.15579   0.00000
 227        5PZ         0.00000  -0.00000   0.37297  -0.00000   0.12727
 228        6PX         0.05192  -0.02694  -0.00000  -0.08546  -0.00000
 229        6PY        -0.05201   0.01929   0.00000   0.02872   0.00000
 230        6PZ         0.00000   0.00000   0.24684  -0.00000   0.08335
 231        7PX         0.04687  -0.00689  -0.00000  -0.03817  -0.00000
 232        7PY        -0.05880  -0.00427   0.00000  -0.00151   0.00000
 233        7PZ         0.00000  -0.00000   0.03423   0.00000   0.01488
 234        8D 0       -0.00066   0.00108   0.00000   0.00106   0.00000
 235        8D+1        0.00000   0.00000   0.00721  -0.00000   0.00247
 236        8D-1        0.00000  -0.00000   0.01127  -0.00000   0.00283
 237        8D+2        0.01134  -0.00644  -0.00000  -0.01081  -0.00000
 238        8D-2       -0.00459   0.00264   0.00000   0.00156   0.00000
 239        9D 0        0.00310  -0.00406  -0.00000   0.00244  -0.00000
 240        9D+1       -0.00000  -0.00000   0.00967   0.00000   0.00317
 241        9D-1       -0.00000   0.00000   0.02052   0.00000   0.00469
 242        9D+2       -0.01368   0.00864   0.00000   0.01680   0.00000
 243        9D-2        0.00693  -0.00793  -0.00000  -0.01365  -0.00000
 244 14  H  1S          0.17276  -0.12658  -0.00000  -0.18027  -0.00000
 245        2S         -0.00963   0.00569   0.00000  -0.02301   0.00000
 246        3S          0.03337   0.01069  -0.00000   0.00613  -0.00000
 247        4PX        -0.01489   0.01322   0.00000   0.01611   0.00000
 248        4PY         0.00673  -0.00602  -0.00000  -0.00784  -0.00000
 249        4PZ         0.00000  -0.00000   0.01427  -0.00000   0.00515
 250        5PX         0.00383   0.00120  -0.00000  -0.00452  -0.00000
 251        5PY        -0.00488   0.00897   0.00000  -0.00644   0.00000
 252        5PZ         0.00000   0.00000   0.00697  -0.00000   0.00254
                           6         7         8         9        10
     Eigenvalues --     2.00000   2.00000   2.00000   2.00000   2.00000
   1 1   C  1S          0.16273   0.06840   0.07880  -0.00503   0.09533
   2        2S         -0.10977  -0.02579   0.00280   0.01042  -0.05600
   3        3S         -0.34029  -0.02887  -0.07655  -0.12223  -0.01231
   4        4S          0.34475   0.03448  -0.08267   0.10393  -0.05015
   5        5PX         0.06651  -0.05793  -0.01538  -0.01430   0.04258
   6        5PY         0.04289  -0.09346  -0.01170   0.12018   0.01829
   7        5PZ        -0.00000   0.00000   0.00000   0.00000  -0.00000
   8        6PX        -0.05272   0.04107  -0.01452  -0.08815  -0.06850
   9        6PY         0.16605   0.05698  -0.00385  -0.16072  -0.12951
  10        6PZ        -0.00000  -0.00000  -0.00000  -0.00000   0.00000
  11        7PX         0.09578   0.00818  -0.01141   0.04895  -0.02559
  12        7PY         0.16516   0.00994   0.01221   0.01246   0.03403
  13        7PZ        -0.00000  -0.00000   0.00000   0.00000   0.00000
  14        8D 0        0.00098   0.00167  -0.00186  -0.00202   0.00325
  15        8D+1        0.00000   0.00000  -0.00000   0.00000   0.00000
  16        8D-1        0.00000  -0.00000   0.00000  -0.00000   0.00000
  17        8D+2       -0.00811  -0.00848  -0.00163   0.00796   0.00060
  18        8D-2        0.01027  -0.00670  -0.00390  -0.00614   0.00856
  19        9D 0        0.00011  -0.00306  -0.00001  -0.00741   0.00425
  20        9D+1       -0.00000  -0.00000   0.00000  -0.00000   0.00000
  21        9D-1        0.00000   0.00000   0.00000   0.00000  -0.00000
  22        9D+2        0.04670   0.04918  -0.00038  -0.07296  -0.02528
  23        9D-2       -0.04390   0.01126  -0.00797  -0.03849  -0.04792
  24 2   C  1S         -0.21829   0.37516  -0.49572   0.19139   0.41392
  25        2S          0.09299   0.10999   0.04640   0.05646  -0.12291
  26        3S          0.21359   0.11546   0.15037  -0.05346  -0.22584
  27        4S         -0.44012  -0.06693   0.08285  -0.05415   0.06780
  28        5PX        -0.02895   0.00881   0.05387   0.03527  -0.04994
  29        5PY        -0.16569   0.01767  -0.02573  -0.15555   0.04457
  30        5PZ        -0.00000   0.00000  -0.00000  -0.00000  -0.00000
  31        6PX         0.05663  -0.04029   0.03954   0.09036  -0.01403
  32        6PY         0.17504   0.06107  -0.01970  -0.16864  -0.08986
  33        6PZ         0.00000  -0.00000  -0.00000   0.00000  -0.00000
  34        7PX        -0.11731  -0.01348   0.01539  -0.00716   0.00967
  35        7PY         0.14856   0.03737   0.02086   0.02681  -0.00304
  36        7PZ         0.00000   0.00000   0.00000  -0.00000  -0.00000
  37        8D 0       -0.00232  -0.00359  -0.00108  -0.00166   0.00295
  38        8D+1       -0.00000  -0.00000   0.00000  -0.00000  -0.00000
  39        8D-1        0.00000  -0.00000  -0.00000  -0.00000   0.00000
  40        8D+2        0.01160   0.00464   0.00307   0.00026   0.00395
  41        8D-2        0.00229  -0.00617  -0.00431  -0.00725   0.01048
  42        9D 0       -0.00164   0.01056  -0.00305  -0.00064  -0.00509
  43        9D+1        0.00000   0.00000  -0.00000   0.00000  -0.00000
  44        9D-1        0.00000   0.00000   0.00000   0.00000  -0.00000
  45        9D+2       -0.07510  -0.02334  -0.00634   0.00786   0.02070
  46        9D-2       -0.03131  -0.01104  -0.01373  -0.03495  -0.00958
  47 3   C  1S         -0.04001   0.14550  -0.11608  -0.04033  -0.04606
  48        2S         -0.06135  -0.17221   0.01919   0.00600   0.02892
  49        3S         -0.16737  -0.35854   0.03441   0.14485   0.19946
  50        4S          0.39839   0.08710   0.03472  -0.39385   0.34557
  51        5PX        -0.18223   0.00198   0.03737   0.02333  -0.04899
  52        5PY         0.17809   0.00466   0.01142  -0.14799   0.11766
  53        5PZ         0.00000  -0.00000   0.00000   0.00000   0.00000
  54        6PX        -0.19533  -0.01423  -0.01437  -0.12344  -0.09499
  55        6PY         0.13380   0.06247  -0.00118  -0.20891   0.02725
  56        6PZ         0.00000   0.00000  -0.00000   0.00000  -0.00000
  57        7PX         0.39080   0.07506  -0.00107   0.03180   0.05747
  58        7PY         0.03246   0.04112  -0.01621   0.09204  -0.04348
  59        7PZ         0.00000   0.00000  -0.00000   0.00000  -0.00000
  60        8D 0       -0.00360   0.00729  -0.00088   0.00267  -0.00403
  61        8D+1        0.00000   0.00000   0.00000   0.00000   0.00000
  62        8D-1        0.00000  -0.00000  -0.00000   0.00000   0.00000
  63        8D+2       -0.02085   0.00152   0.00009   0.02164  -0.01241
  64        8D-2       -0.00976   0.00155  -0.00251  -0.00879   0.00458
  65        9D 0       -0.00986   0.00291  -0.00184   0.01050  -0.00211
  66        9D+1       -0.00000  -0.00000  -0.00000  -0.00000   0.00000
  67        9D-1        0.00000  -0.00000   0.00000   0.00000   0.00000
  68        9D+2        0.01767   0.00594   0.01232   0.08701   0.04006
  69        9D-2        0.03241   0.00302   0.01777   0.04990   0.00668
  70 4   C  1S         -0.06210  -0.24149   0.03709  -0.06626   0.00227
  71        2S          0.09300   0.19804   0.08565  -0.01660  -0.11437
  72        3S          0.24163   0.34322   0.11775  -0.08189  -0.19756
  73        4S         -0.11315  -0.11290  -0.11332   0.01437  -0.11165
  74        5PX        -0.07527   0.08942  -0.02037  -0.22642   0.13482
  75        5PY         0.04745   0.01827   0.05261  -0.06639   0.08939
  76        5PZ        -0.00000   0.00000  -0.00000   0.00000  -0.00000
  77        6PX         0.13142   0.05898   0.09431   0.10793  -0.00733
  78        6PY         0.05744   0.10369   0.03767  -0.00838  -0.00186
  79        6PZ        -0.00000  -0.00000   0.00000  -0.00000   0.00000
  80        7PX        -0.41666  -0.08903  -0.03242  -0.08442   0.01644
  81        7PY         0.07381   0.00515  -0.03554   0.01407   0.02129
  82        7PZ        -0.00000  -0.00000   0.00000   0.00000   0.00000
  83        8D 0       -0.00450  -0.00781  -0.00194  -0.00060   0.00895
  84        8D+1       -0.00000   0.00000   0.00000  -0.00000   0.00000
  85        8D-1        0.00000  -0.00000  -0.00000   0.00000  -0.00000
  86        8D+2        0.00002  -0.00202   0.00416  -0.00646   0.01035
  87        8D-2        0.01089   0.00250  -0.01150  -0.00730   0.01773
  88        9D 0        0.00092  -0.00975   0.00134   0.00405   0.00468
  89        9D+1       -0.00000  -0.00000  -0.00000  -0.00000   0.00000
  90        9D-1        0.00000   0.00000   0.00000   0.00000  -0.00000
  91        9D+2        0.03634  -0.02734  -0.00557   0.03192  -0.05319
  92        9D-2        0.03539   0.01669   0.03149   0.04237  -0.02630
  93 5   C  1S          0.04117   0.03161  -0.00853  -0.05314   0.09150
  94        2S          0.02799  -0.04558   0.00078   0.10874  -0.06092
  95        3S          0.05974  -0.09668  -0.01404   0.24545  -0.11637
  96        4S         -0.37548  -0.07762  -0.08930  -0.07181  -0.10475
  97        5PX         0.19949   0.07103  -0.03169  -0.01331   0.05845
  98        5PY        -0.16359  -0.02569   0.03781   0.04645   0.03354
  99        5PZ         0.00000   0.00000  -0.00000   0.00000   0.00000
 100        6PX        -0.07397  -0.06891  -0.00857  -0.02044  -0.01852
 101        6PY        -0.01432   0.07365   0.01113  -0.12689  -0.00163
 102        6PZ         0.00000  -0.00000   0.00000   0.00000   0.00000
 103        7PX         0.21859   0.06161   0.00568  -0.02794   0.06279
 104        7PY        -0.28938  -0.07181   0.03206   0.01426  -0.04801
 105        7PZ        -0.00000  -0.00000   0.00000  -0.00000   0.00000
 106        8D 0        0.00150   0.00174  -0.00015  -0.00042   0.00015
 107        8D+1       -0.00000  -0.00000   0.00000  -0.00000  -0.00000
 108        8D-1       -0.00000   0.00000   0.00000  -0.00000  -0.00000
 109        8D+2       -0.01124  -0.00588   0.00118   0.00802  -0.00122
 110        8D-2        0.01629   0.01335  -0.00025  -0.00217   0.00328
 111        9D 0       -0.00193  -0.00704   0.00024   0.00341  -0.00172
 112        9D+1        0.00000   0.00000   0.00000  -0.00000  -0.00000
 113        9D-1       -0.00000  -0.00000   0.00000  -0.00000   0.00000
 114        9D+2        0.06465   0.04206   0.00165  -0.03057   0.00651
 115        9D-2       -0.08815  -0.01863   0.00470  -0.00699   0.00692
 116 6   C  1S         -0.01269   0.28107  -0.16396   0.17091   0.11370
 117        2S          0.01736   0.09785  -0.03146  -0.13061   0.03019
 118        3S          0.07456   0.09092  -0.08360  -0.33809   0.14669
 119        4S          0.30731   0.11554   0.18989   0.24676  -0.07097
 120        5PX        -0.11363  -0.13095  -0.05872   0.08666  -0.04588
 121        5PY         0.17471  -0.05883  -0.01733   0.10572  -0.07731
 122        5PZ         0.00000   0.00000  -0.00000  -0.00000  -0.00000
 123        6PX         0.10257   0.08525   0.07395   0.08903  -0.06389
 124        6PY         0.09233   0.04750   0.02401  -0.04954  -0.04728
 125        6PZ        -0.00000   0.00000   0.00000   0.00000  -0.00000
 126        7PX        -0.17221  -0.07224  -0.01566  -0.00062  -0.03941
 127        7PY        -0.28580  -0.07116   0.00871   0.01144  -0.04599
 128        7PZ         0.00000   0.00000  -0.00000  -0.00000  -0.00000
 129        8D 0       -0.00016  -0.00324  -0.00056   0.00144   0.00128
 130        8D+1        0.00000   0.00000   0.00000  -0.00000   0.00000
 131        8D-1        0.00000  -0.00000   0.00000  -0.00000   0.00000
 132        8D+2       -0.00364   0.00531   0.00479  -0.00584   0.00353
 133        8D-2        0.01370   0.01433   0.00123  -0.00569   0.00214
 134        9D 0        0.01108   0.00902  -0.00345  -0.00520   0.00259
 135        9D+1        0.00000  -0.00000   0.00000   0.00000  -0.00000
 136        9D-1       -0.00000   0.00000  -0.00000  -0.00000   0.00000
 137        9D+2        0.02786  -0.06160  -0.02027   0.06509  -0.01887
 138        9D-2       -0.09762  -0.01517  -0.03153  -0.03543   0.02403
 139 7   N  1S         -0.13663   0.24827   0.36980   0.16850   0.26598
 140        2S          0.07268  -0.03061   0.02848   0.05922   0.08145
 141        3S          0.21858  -0.15618  -0.05504   0.01828   0.16052
 142        4S         -0.03570  -0.16304  -0.03309  -0.08859   0.04879
 143        5PX        -0.13294  -0.00398  -0.03274  -0.05946   0.02480
 144        5PY        -0.18224   0.11289  -0.01754   0.27005  -0.15620
 145        5PZ         0.00000  -0.00000  -0.00000   0.00000   0.00000
 146        6PX        -0.07155  -0.00546  -0.02411  -0.03850   0.01610
 147        6PY         0.07130  -0.06691  -0.04651  -0.08510   0.03132
 148        6PZ        -0.00000   0.00000   0.00000   0.00000  -0.00000
 149        7PX         0.00020  -0.00487  -0.00644  -0.00264  -0.00331
 150        7PY         0.07743  -0.07276  -0.01510  -0.20457   0.12037
 151        7PZ         0.00000  -0.00000   0.00000  -0.00000   0.00000
 152        8D 0        0.00163   0.00034  -0.00239  -0.00182   0.00035
 153        8D+1       -0.00000  -0.00000   0.00000   0.00000  -0.00000
 154        8D-1       -0.00000  -0.00000  -0.00000  -0.00000  -0.00000
 155        8D+2        0.00281   0.00031  -0.00378  -0.00113   0.00083
 156        8D-2        0.00269  -0.00015  -0.00329  -0.00366   0.00351
 157        9D 0       -0.00303   0.01111   0.00317   0.01939   0.00087
 158        9D+1        0.00000   0.00000  -0.00000   0.00000  -0.00000
 159        9D-1        0.00000  -0.00000   0.00000   0.00000  -0.00000
 160        9D+2       -0.00936   0.01762   0.00435   0.02764   0.00027
 161        9D-2        0.00749  -0.00179  -0.00389  -0.00447   0.00068
 162 8   N  1S          0.13108  -0.15748  -0.56169  -0.02964  -0.29325
 163        2S         -0.08011   0.12933   0.03727  -0.11642  -0.15338
 164        3S         -0.21359   0.26366   0.13598  -0.06433  -0.20869
 165        4S         -0.11075   0.17198   0.04954   0.22030  -0.17762
 166        5PX        -0.05241  -0.00423  -0.03559  -0.04790   0.02952
 167        5PY         0.06275   0.01408   0.03920  -0.33554   0.00733
 168        5PZ        -0.00000   0.00000   0.00000   0.00000  -0.00000
 169        6PX        -0.01720   0.00080  -0.01347  -0.01762   0.01490
 170        6PY         0.10274  -0.05294  -0.02087  -0.19877   0.03673
 171        6PZ         0.00000  -0.00000  -0.00000  -0.00000   0.00000
 172        7PX        -0.00607   0.00014   0.00055  -0.00182   0.00182
 173        7PY         0.01146  -0.02571  -0.00703  -0.02752   0.01968
 174        7PZ        -0.00000   0.00000  -0.00000   0.00000  -0.00000
 175        8D 0        0.00224  -0.00025   0.00132  -0.01143   0.00128
 176        8D+1        0.00000   0.00000   0.00000  -0.00000  -0.00000
 177        8D-1        0.00000   0.00000   0.00000  -0.00000  -0.00000
 178        8D+2        0.00345  -0.00005   0.00257  -0.02005   0.00178
 179        8D-2        0.00867   0.00040   0.00284   0.00445  -0.00217
 180        9D 0        0.00755  -0.00660  -0.00473  -0.00509   0.00361
 181        9D+1       -0.00000  -0.00000  -0.00000  -0.00000   0.00000
 182        9D-1       -0.00000  -0.00000  -0.00000   0.00000  -0.00000
 183        9D+2        0.01459  -0.00996  -0.00775  -0.00894   0.00575
 184        9D-2        0.00164  -0.00105  -0.00061  -0.00022  -0.00103
 185 9   H  1S          0.15482   0.03841   0.00829   0.05822  -0.04600
 186        2S          0.29376   0.02282  -0.00785   0.04766   0.03104
 187        3S         -0.01801  -0.00398   0.00017  -0.00093   0.01100
 188        4PX         0.00908   0.00385   0.00301   0.00535  -0.00745
 189        4PY         0.00236   0.00187   0.00133  -0.00007  -0.00394
 190        4PZ        -0.00000  -0.00000  -0.00000  -0.00000   0.00000
 191        5PX         0.04863  -0.00109  -0.00578   0.00305   0.01781
 192        5PY         0.04709  -0.00024  -0.00069   0.00909   0.00446
 193        5PZ         0.00000   0.00000   0.00000   0.00000  -0.00000
 194 10  H  1S          0.10198   0.02318  -0.00471   0.06597   0.02834
 195        2S          0.23027   0.06941  -0.00258   0.06013   0.07606
 196        3S         -0.00704   0.00110  -0.00699   0.00745  -0.00817
 197        4PX        -0.00093   0.00205  -0.00040  -0.00642   0.00100
 198        4PY        -0.00747  -0.00080   0.00081  -0.00136   0.00039
 199        4PZ        -0.00000   0.00000   0.00000   0.00000  -0.00000
 200        5PX        -0.06446  -0.02284   0.00204  -0.00307  -0.02039
 201        5PY         0.00140  -0.00166  -0.00388  -0.00855  -0.00897
 202        5PZ         0.00000  -0.00000  -0.00000  -0.00000   0.00000
 203 11  H  1S         -0.16428  -0.03188  -0.04486  -0.04886   0.00856
 204        2S         -0.36108  -0.09202  -0.08079  -0.12699   0.04543
 205        3S         -0.02136   0.00327   0.00791   0.00643  -0.00215
 206        4PX         0.00481  -0.00274   0.00160   0.00634  -0.00109
 207        4PY        -0.00075  -0.00151  -0.00269  -0.00113  -0.00060
 208        4PZ        -0.00000  -0.00000  -0.00000   0.00000  -0.00000
 209        5PX         0.07320   0.03237   0.01810   0.01094  -0.00200
 210        5PY        -0.03968   0.00043   0.00024  -0.02328   0.00952
 211        5PZ        -0.00000   0.00000  -0.00000  -0.00000   0.00000
 212 12  H  1S         -0.11149  -0.01634   0.01155   0.07594  -0.06455
 213        2S         -0.23301  -0.02460   0.01384   0.07519  -0.07505
 214        3S          0.00421   0.00357  -0.00367   0.02108  -0.01495
 215        4PX        -0.00522  -0.00288  -0.00032   0.00379  -0.00258
[...]
   D16        0.00000  -0.00000   0.00000  -0.00000   0.00000   0.00000
   D17        0.00000  -0.00000   0.00000   0.00000   0.00000   0.00000
   D18        3.14159  -0.00000   0.00000   0.00000   0.00000   3.14159
   D19        3.14159   0.00000   0.00000   0.00000   0.00000   3.14159
   D20       -0.00000   0.00000   0.00000   0.00000   0.00000   0.00000
   D21        3.14159   0.00000   0.00000   0.00000   0.00000   3.14159
   D22       -0.00000   0.00000   0.00000   0.00000   0.00000   0.00000
   D23        0.00000   0.00000   0.00000  -0.00000   0.00000   0.00000
   D24        3.14159   0.00000   0.00000  -0.00000   0.00000   3.14159
   D25        3.14159  -0.00000   0.00000  -0.00000   0.00000   3.14159
   D26       -0.00000   0.00000   0.00000  -0.00000   0.00000   0.00000
         Item               Value     Threshold  Converged?
 Maximum Force            0.000033     0.000450     YES
 RMS     Force            0.000011     0.000300     YES
 Maximum Displacement     0.000507     0.001800     YES
 RMS     Displacement     0.000122     0.001200     YES
 Predicted change in Energy=-1.694110D-08
 Optimization completed.
    -- Stationary point found.
                           ----------------------------
                           !   Optimized Parameters   !
                           ! (Angstroms and Degrees)  !
 --------------------------                            --------------------------
 ! Name  Definition              Value          Derivative Info.                !
 --------------------------------------------------------------------------------
 ! R1    R(1,2)                  1.3763         -DE/DX =    0.0                 !
 ! R2    R(1,3)                  1.4185         -DE/DX =    0.0                 !
 ! R3    R(1,12)                 1.0888         -DE/DX =    0.0                 !
 ! R4    R(2,4)                  1.4175         -DE/DX =    0.0                 !
 ! R5    R(2,9)                  1.0887         -DE/DX =    0.0                 !
 ! R6    R(3,5)                  1.4159         -DE/DX =    0.0                 !
 ! R7    R(3,7)                  1.3664         -DE/DX =    0.0                 !
 ! R8    R(4,6)                  1.4169         -DE/DX =    0.0                 !
 ! R9    R(4,13)                 1.3303         -DE/DX =    0.0                 !
 ! R10   R(5,6)                  1.379          -DE/DX =    0.0                 !
 ! R11   R(5,10)                 1.0889         -DE/DX =    0.0                 !
 ! R12   R(6,11)                 1.0902         -DE/DX =    0.0                 !
 ! R13   R(7,8)                  1.1182         -DE/DX =    0.0                 !
 ! R14   R(13,14)                0.9697         -DE/DX =    0.0                 !
 ! A1    A(2,1,3)              118.0556         -DE/DX =    0.0                 !
 ! A2    A(2,1,12)             121.3065         -DE/DX =    0.0                 !
 ! A3    A(3,1,12)             120.6379         -DE/DX =    0.0                 !
 ! A4    A(1,2,4)              120.0296         -DE/DX =    0.0                 !
 ! A5    A(1,2,9)              121.0942         -DE/DX =    0.0                 !
 ! A6    A(4,2,9)              118.8762         -DE/DX =    0.0                 !
 ! A7    A(1,3,5)              122.9026         -DE/DX =    0.0                 !
 ! A8    A(1,3,7)              118.6029         -DE/DX =    0.0                 !
 ! A9    A(5,3,7)              118.4945         -DE/DX =    0.0                 !
 ! A10   A(2,4,6)              120.9839         -DE/DX =    0.0                 !
 ! A11   A(2,4,13)             116.0632         -DE/DX =    0.0                 !
 ! A12   A(6,4,13)             122.9529         -DE/DX =    0.0                 !
 ! A13   A(3,5,6)              118.0871         -DE/DX =    0.0                 !
 ! A14   A(3,5,10)             120.6618         -DE/DX =    0.0                 !
 ! A15   A(6,5,10)             121.2511         -DE/DX =    0.0                 !
 ! A16   A(4,6,5)              119.9412         -DE/DX =    0.0                 !
 ! A17   A(4,6,11)             120.27           -DE/DX =    0.0                 !
 ! A18   A(5,6,11)             119.7888         -DE/DX =    0.0                 !
 ! A19   A(4,13,14)            112.7967         -DE/DX =    0.0                 !
 ! A20   L(3,7,8,12,-1)        179.8177         -DE/DX =    0.0                 !
 ! A21   L(3,7,8,12,-2)        180.0            -DE/DX =    0.0                 !
 ! D1    D(3,1,2,4)              0.0            -DE/DX =    0.0                 !
 ! D2    D(3,1,2,9)            180.0            -DE/DX =    0.0                 !
 ! D3    D(12,1,2,4)           180.0            -DE/DX =    0.0                 !
 ! D4    D(12,1,2,9)             0.0            -DE/DX =    0.0                 !
 ! D5    D(2,1,3,5)              0.0            -DE/DX =    0.0                 !
 ! D6    D(2,1,3,7)            180.0            -DE/DX =    0.0                 !
 ! D7    D(12,1,3,5)           180.0            -DE/DX =    0.0                 !
 ! D8    D(12,1,3,7)             0.0            -DE/DX =    0.0                 !
 ! D9    D(1,2,4,6)              0.0            -DE/DX =    0.0                 !
 ! D10   D(1,2,4,13)           180.0            -DE/DX =    0.0                 !
 ! D11   D(9,2,4,6)            180.0            -DE/DX =    0.0                 !
 ! D12   D(9,2,4,13)             0.0            -DE/DX =    0.0                 !
 ! D13   D(1,3,5,6)              0.0            -DE/DX =    0.0                 !
 ! D14   D(1,3,5,10)           180.0            -DE/DX =    0.0                 !
 ! D15   D(7,3,5,6)            180.0            -DE/DX =    0.0                 !
 ! D16   D(7,3,5,10)             0.0            -DE/DX =    0.0                 !
 ! D17   D(2,4,6,5)              0.0            -DE/DX =    0.0                 !
 ! D18   D(2,4,6,11)           180.0            -DE/DX =    0.0                 !
 ! D19   D(13,4,6,5)           180.0            -DE/DX =    0.0                 !
 ! D20   D(13,4,6,11)            0.0            -DE/DX =    0.0                 !
 ! D21   D(2,4,13,14)          180.0            -DE/DX =    0.0                 !
 ! D22   D(6,4,13,14)            0.0            -DE/DX =    0.0                 !
 ! D23   D(3,5,6,4)              0.0            -DE/DX =    0.0                 !
 ! D24   D(3,5,6,11)           180.0            -DE/DX =    0.0                 !
 ! D25   D(10,5,6,4)           180.0            -DE/DX =    0.0                 !
 ! D26   D(10,5,6,11)            0.0            -DE/DX =    0.0                 !
 --------------------------------------------------------------------------------
 GradGradGradGradGradGradGradGradGradGradGradGradGradGradGradGradGradGrad

 Leave Link  103 at Sun Aug  9 03:13:16 2020, MaxMem=   524288000 cpu:               0.1 elap:               0.0
 (Enter /home/ubuntu/g16/l9999.exe)

 ----------------------------------------------------------------------

 Electric dipole moment (input orientation):
 (Debye = 10**-18 statcoulomb cm , SI units = C m)
                  (au)            (Debye)         (10**-30 SI)
   Tot        0.650670D+00      0.165384D+01      0.551661D+01
   x         -0.537046D+00     -0.136504D+01     -0.455327D+01
   y          0.367359D+00      0.933732D+00      0.311460D+01
   z          0.000000D+00      0.000000D+00      0.000000D+00

 Dipole polarizability, Alpha (input orientation).
 (esu units = cm**3 , SI units = C**2 m**2 J**-1)
 Alpha(0;0):
               (au)            (10**-24 esu)      (10**-40 SI)
   iso        0.928478D+02      0.137586D+02      0.153085D+02
   aniso      0.965090D+02      0.143012D+02      0.159122D+02
   xx         0.799195D+02      0.118429D+02      0.131769D+02
   yx         0.166751D+01      0.247099D+00      0.274935D+00
   yy         0.153869D+03      0.228011D+02      0.253697D+02
   zx         0.000000D+00      0.000000D+00      0.000000D+00
   zy         0.000000D+00      0.000000D+00      0.000000D+00
   zz         0.447544D+02      0.663192D+01      0.737900D+01

 ----------------------------------------------------------------------

 Dipole orientation:
     6          1.06450963          1.55622017         -1.56589654
     6         -0.15302684         -0.22371189         -3.01971287
     6          0.90814720          1.32763196          1.10028485
     6         -1.51250155         -2.21114526         -1.84610292
     6         -0.43816135         -0.64055365          2.31384088
     6         -1.64424519         -2.40374297          0.82133244
     7          2.10913316          3.08336861          2.56408778
     7          3.09410494          4.52331139          3.75644367
     1         -0.09442973         -0.13804802         -5.07437065
     1         -0.51291952         -0.74984357          4.36723469
     1         -2.69605284         -3.94139395          1.70078353
     1          2.11983236          3.09900990         -2.42593211
     8         -2.63164777         -3.84723937         -3.39215126
     1         -3.53430506         -5.16684554         -2.49674903

 Electric dipole moment (dipole orientation):
 (Debye = 10**-18 statcoulomb cm , SI units = C m)
                  (au)            (Debye)         (10**-30 SI)
   Tot        0.650670D+00      0.165384D+01      0.551661D+01
   x          0.000000D+00      0.000000D+00      0.000000D+00
   y          0.000000D+00      0.000000D+00      0.000000D+00
   z          0.650670D+00      0.165384D+01      0.551661D+01

 Dipole polarizability, Alpha (dipole orientation).
 (esu units = cm**3 , SI units = C**2 m**2 J**-1)
 Alpha(0;0):
               (au)            (10**-24 esu)      (10**-40 SI)
   iso        0.928478D+02      0.137586D+02      0.153085D+02
   aniso      0.965090D+02      0.143012D+02      0.159122D+02
   xx         0.725172D+02      0.107459D+02      0.119565D+02
   yx         0.405868D+02      0.601434D+01      0.669186D+01
   yy         0.104089D+03      0.154244D+02      0.171619D+02
   zx         0.191145D+02      0.283248D+01      0.315156D+01
   zy         0.279437D+02      0.414084D+01      0.460730D+01
   zz         0.101937D+03      0.151056D+02      0.168072D+02

 ----------------------------------------------------------------------
 1\1\GINC-192-168-10-17\Freq\UB3LYP\Aug-CC-pVDZ\C6H5N2O1(1+)\UBUNTU\09-
 Aug-2020\0\\#P Geom=AllCheck Guess=TCheck SCRF=Check GenChk UB3LYP/Aug
 -CC-pVDZ Freq\\4-HOPHN2+_UB3LYP-aug-cc-pVDZ\\1,1\C,1.24725,0.35568,0.\
 C,1.23794,-1.02057,0.\C,0.,1.03128,0.\C,0.00594,-1.72164,0.\C,-1.24248
 ,0.35233,0.\C,-1.22883,-1.02662,0.\N,-0.00381,2.39771,0.\N,-0.00337,3.
 51593,0.\H,2.16636,-1.5891,0.\H,-2.1789,0.90798,0.\H,-2.16954,-1.57756
 ,0.\H,2.18134,0.91514,0.\O,0.08898,-3.04933,0.\H,-0.77977,-3.48012,0.\
 \Version=ES64L-G16RevA.03\State=1-A'\HF=-416.1283102\S2=0.\S2-1=0.\S2A
 =0.\RMSD=9.503e-09\RMSF=1.798e-05\ZeroPoint=0.1033298\Thermal=0.110493
 4\Dipole=-0.5370462,0.3673586,0.\DipoleDeriv=0.0806991,-0.4342901,0.,0
 .0285349,0.705282,0.,0.,0.,-0.0020706,-0.0965648,-0.5719779,0.,-0.1876
 508,-0.6659854,0.,0.,0.,-0.1022774,0.0505946,-0.0151605,0.,-0.0253197,
 -1.4318992,0.,0.,0.,0.0326293,0.4154092,-0.070273,0.,0.0354037,2.17285
 94,0.,0.,0.,0.2166495,0.0768425,0.4393676,0.,0.0162325,0.7306539,0.,0.
 ,0.,0.0020764,-0.0877832,0.6104382,0.,0.1584871,-0.7118893,0.,0.,0.,-0
 .1087275,0.0792919,0.0049388,0.,0.0218615,2.5831939,0.,0.,0.,0.2476512
 ,0.0639766,-0.0013173,0.,-0.011128,-1.2120232,0.,0.,0.,0.0649928,0.101
 2238,-0.0114335,0.,-0.0042871,0.0928932,0.,0.,0.,0.1516298,0.1042638,0
 .0007755,0.,0.0094733,0.0708222,0.,0.,0.,0.1481554,0.0770528,-0.012490
 5,0.,-0.0229482,0.038468,0.,0.,0.,0.150787,0.106362,0.0013172,0.,-0.01
 03419,0.0712769,0.,0.,0.,0.1490125,-0.1898599,-0.1123112,0.,-0.0713077
 ,-1.9636305,0.,0.,0.,-0.2890217,0.2184917,0.1724166,0.,0.0629904,0.519
 9779,0.,0.,0.,0.3385133\Polar=79.9195215,1.6675057,153.8694877,0.,0.,4
 4.7544017\Quadrupole=1.008822,9.4034404,-10.4122624,4.0583436,0.,0.\PG
 =CS [SG(C6H5N2O1)]\NImag=0\\0.69384472,0.06124287,0.72912904,0.,0.,0.1
 3296817,-0.12339665,0.02593618,0.,0.68982024,-0.02528369,-0.39997651,0
 .,-0.05409143,0.75665722,0.,0.,-0.06012626,0.,0.,0.13007364,-0.2705713
 9,0.04914947,0.,0.01962781,0.05339195,0.,0.65679801,0.07765801,-0.1053
 8336,0.,0.01761667,-0.04471417,0.,0.00200729,0.56885045,0.,0.,-0.05547
 379,0.,0.,0.00965421,0.,0.,0.11165569,0.03435971,-0.06047577,0.,-0.273
 72594,-0.03460184,0.,-0.05013957,-0.00315357,0.,0.68213809,-0.02624210
 ,-0.03800124,0.,-0.08697616,-0.13282791,0.,-0.00084953,0.01731638,0.,0
 .00723959,0.71822281,0.,0.,0.00285812,0.,0.,-0.07539024,0.,0.,-0.01051
 372,0.,0.,0.17912675,-0.05159999,0.01240864,0.,-0.01183539,-0.02445443
 ,0.,-0.27398727,-0.08059734,0.,0.03400527,0.02864200,0.,0.69833605,-0.
 01225240,0.03506854,0.,-0.01232180,-0.02895222,0.,-0.05221777,-0.10648
 508,0.,0.06669939,-0.03655910,0.,-0.05764506,0.72220381,0.,0.,0.012548
 58,0.,0.,-0.00338602,0.,0.,-0.05602409,0.,0.,0.00299192,0.,0.,0.133055
 52,-0.01140215,0.01096079,0.,-0.03599898,-0.00637563,0.,0.01906416,-0.
 01572957,0.,-0.27190716,0.08549485,0.,-0.12118513,-0.02703502,0.,0.688
 38111,0.02453857,-0.02903544,0.,0.00742474,0.04726603,0.,-0.05369930,-
 0.04624365,0.,0.02665840,-0.14170721,0.,0.02678858,-0.39077814,0.,0.05
 290445,0.73758422,0.,0.,-0.00361312,0.,0.,0.00973341,0.,0.,0.00977034,
 0.,0.,-0.07432967,0.,0.,-0.06015285,0.,0.,0.12641777,0.01122178,0.0349
 7960,0.,-0.00602303,0.00567548,0.,-0.10055235,0.00040150,0.,-0.0085736
 7,-0.00028233,0.,0.01114881,-0.03497973,0.,-0.00579633,-0.00566280,0.,
 0.13213865,0.03000413,-0.07845291,0.,0.02003401,0.01976523,0.,0.001850
 80,-0.18877239,0.,0.00240337,-0.02239481,0.,-0.03077743,-0.08032220,0.
 ,-0.02072627,0.02071744,0.,-0.00036411,1.61245815,0.,0.,-0.00887717,0.
 ,0.,0.00629027,0.,0.,-0.04118994,0.,0.,-0.00082059,0.,0.,-0.00898925,0
 .,0.,0.00673103,0.,0.,0.09459945,-0.00364173,-0.00216168,0.,0.00120751
 ,-0.00092598,0.,0.02385077,0.00012509,0.,0.00187375,0.00006696,0.,-0.0
 0356137,0.00221755,0.,0.00113424,0.00088297,0.,-0.03779009,-0.00045734
 ,0.,0.01819289,-0.01587216,0.02018706,0.,-0.00777766,-0.01001383,0.,-0
 .00115950,-0.08815643,0.,-0.00131419,0.01315003,0.,0.01657813,0.021065
 06,0.,0.00824746,-0.01051742,0.,-0.00009211,-1.30473867,0.,0.00035074,
 1.37036364,0.,0.,0.00534370,0.,0.,-0.00143803,0.,0.,0.01172436,0.,0.,0
 .00070870,0.,0.,0.00541043,0.,0.,-0.00158677,0.,0.,-0.04424679,0.,0.,0
 .02421463,0.00595965,-0.00309779,0.,-0.27174092,0.12886747,0.,0.001877
 13,-0.00184394,0.,-0.01777874,0.01543343,0.,-0.00024729,-0.00117322,0.
 ,-0.00268413,-0.00304928,0.,0.00101511,0.00000509,0.,-0.00032562,-0.00
 033619,0.,0.28174879,0.02555708,-0.01156783,0.,0.12988334,-0.13357447,
 0.,-0.00130273,-0.00347033,0.,-0.01552035,0.01164654,0.,-0.00048813,-0
 .00044651,0.,-0.00315829,-0.00185100,0.,0.00158876,-0.00173256,0.,-0.0
 0029288,0.00027142,0.,-0.13672303,0.13816247,0.,0.,0.00388190,0.,0.,-0
 .03742673,0.,0.,0.00667031,0.,0.,0.00576365,0.,0.,-0.00107198,0.,0.,0.
 00444374,0.,0.,0.00238832,0.,0.,-0.00084243,0.,0.,0.02526814,-0.001970
 79,-0.00380426,0.,0.00065359,0.00001680,0.,-0.01614196,0.01261603,0.,0
 .00059669,-0.00127726,0.,-0.27424111,0.12750633,0.,0.00595634,-0.00290
 713,0.,0.00055421,0.00323051,0.,-0.00018779,-0.00163559,0.,0.00001083,
 0.00005860,0.,0.28420339,-0.00310914,-0.00194156,0.,-0.00008270,-0.000
 40214,0.,-0.01666794,0.00949686,0.,-0.00168231,-0.00487008,0.,0.128601
 21,-0.13294168,0.,0.02612894,-0.00922125,0.,-0.00026631,0.00308648,0.,
 -0.00007021,-0.00072949,0.,0.00005762,0.00003223,0.,-0.13392878,0.1365
 2050,0.,0.,0.00376389,0.,0.,-0.00140961,0.,0.,0.00348448,0.,0.,0.00891
 680,0.,0.,-0.03725128,0.,0.,0.00613328,0.,0.,-0.00368784,0.,0.,0.00069
 822,0.,0.,-0.00045374,0.,0.,0.02453793,-0.00026104,0.00116513,0.,-0.00
 261928,0.00340342,0.,0.00202890,0.00159878,0.,-0.01729181,-0.01658402,
 0.,0.00493501,0.00257145,0.,-0.27213196,-0.12426165,0.,0.00086572,-0.0
 0008389,0.,-0.00028296,0.00033214,0.,-0.00071501,-0.00076209,0.,0.0007
 1682,0.00003878,0.,0.28281287,0.00050877,-0.00062659,0.,0.00346541,-0.
 00146530,0.,0.00136562,-0.00368412,0.,0.01553131,0.00939145,0.,-0.0270
 5702,-0.01237399,0.,-0.12359288,-0.12824693,0.,-0.00178776,-0.00166391
 ,0.,0.00034422,0.00020798,0.,0.00061506,0.00060198,0.,-0.00018088,0.00
 100520,0.,0.13140220,0.13424643,0.,0.,-0.00102140,0.,0.,0.00449085,0.,
 0.,0.00651394,0.,0.,0.00479681,0.,0.,0.00365699,0.,0.,-0.03556068,0.,0
 .,0.00235514,0.,0.,-0.00082410,0.,0.,-0.00031476,0.,0.,-0.00483378,0.,
 0.,0.02385198,-0.27319112,-0.12821026,0.,0.00623606,0.00286837,0.,-0.0
 1623928,-0.01244389,0.,0.00042532,0.00125586,0.,-0.00196844,0.00373087
 ,0.,0.00070123,0.00001559,0.,0.00053410,-0.00335654,0.,-0.00017014,0.0
 0169117,0.,0.00070177,0.00011909,0.,-0.00054691,-0.00063578,0.,0.00000
 644,-0.00006925,0.,0.28311211,-0.12934782,-0.13379672,0.,-0.02611241,-
 0.00930809,0.,0.01672143,0.00927955,0.,0.00165772,-0.00456954,0.,0.003
 13428,-0.00189326,0.,0.00006690,-0.00040900,0.,0.00025589,0.00315055,0
 .,0.00005831,-0.00074060,0.,-0.00007380,0.00098254,0.,0.00063783,0.000
 57333,0.,-0.00006681,0.00003562,0.,0.13465366,0.13766062,0.,0.,-0.0375
 0066,0.,0.,0.00618720,0.,0.,0.00323021,0.,0.,0.00904069,0.,0.,0.003686
 98,0.,0.,-0.00134160,0.,0.,-0.00344106,0.,0.,0.00063226,0.,0.,-0.00499
 677,0.,0.,0.00115897,0.,0.,-0.00047292,0.,0.,0.02468006,-0.01001112,0.
 00371356,0.,0.00502906,-0.05197619,0.,0.00448518,-0.00088390,0.,-0.118
 84375,-0.00720389,0.,-0.00845622,-0.00352034,0.,0.00369671,0.04393813,
 0.,0.00140290,0.00146211,0.,-0.00034493,-0.00083460,0.,0.00190657,0.00
 086446,0.,0.00034427,0.00149256,0.,0.00263515,-0.00015194,0.,0.0003743
 4,-0.00159612,0.,0.53882223,-0.00580622,0.01488109,0.,-0.02059456,-0.0
 5757728,0.,0.00101192,-0.01982305,0.,0.04122321,-0.36104198,0.,0.00576
 549,0.01339933,0.,0.01433263,-0.05136007,0.,0.00021532,0.02111164,0.,-
 0.00004455,-0.01165206,0.,0.00129173,0.00078565,0.,-0.00040233,-0.0008
 4744,0.,-0.00052524,0.00295861,0.,0.00032318,-0.00058042,0.,0.15760487
 ,0.56930998,0.,0.,0.00360824,0.,0.,0.00731786,0.,0.,0.00024171,0.,0.,-
 0.04923615,0.,0.,0.00610324,0.,0.,0.01552987,0.,0.,-0.00099938,0.,0.,0
 .00015772,0.,0.,-0.00287420,0.,0.,-0.00132733,0.,0.,-0.00298188,0.,0.,
 -0.00022855,0.,0.,0.03454038,0.00066013,-0.00180648,0.,0.00276591,0.00
 348571,0.,-0.00010016,0.00262882,0.,0.00486179,0.00128260,0.,-0.001342
 94,-0.00158026,0.,0.00217204,0.00642875,0.,-0.00014580,-0.00322444,0.,
 0.00004547,0.00182237,0.,0.00027186,0.00017617,0.,0.00005242,0.0001240
 4,0.,-0.00069884,-0.00039287,0.,0.00002452,0.00001095,0.,-0.42104040,-
 0.19439547,0.,0.41247401,-0.00159589,-0.00048358,0.,0.00359636,-0.0048
 7655,0.,0.00039828,0.00178935,0.,-0.04466496,-0.02775535,0.,-0.0008989
 2,-0.00098456,0.,-0.00151836,0.00380242,0.,0.00031860,-0.00221205,0.,-
 0.00009321,0.00130331,0.,0.00002686,0.00015987,0.,0.00007013,0.0002390
 4,0.,0.00177181,-0.00038643,0.,0.00005792,-0.00038457,0.,-0.14290871,-
 0.11956399,0.,0.18544010,0.14935310,0.,0.,0.00163980,0.,0.,0.00542945,
 0.,0.,0.00025628,0.,0.,-0.00391308,0.,0.,-0.00057820,0.,0.,-0.00217476
 ,0.,0.,-0.00011221,0.,0.,0.00004808,0.,0.,-0.00043545,0.,0.,0.00027000
 ,0.,0.,0.00034381,0.,0.,-0.00063480,0.,0.,-0.00985154,0.,0.,0.00971262
 \\-0.00002534,0.00000152,0.,0.00001864,0.00002653,0.,0.00003462,0.0000
 3323,0.,-0.00004227,-0.00003625,0.,0.00001063,-0.00002908,0.,0.0000029
 2,-0.00000633,0.,-0.00002096,-0.00004930,0.,0.00000155,0.00002417,0.,-
 0.00000552,-0.00000467,0.,0.00000519,0.00001354,0.,0.00000432,0.000003
 31,0.,0.00000476,-0.00001067,0.,0.00001457,0.00003680,0.,-0.00000312,-
 0.00000280,0.\\\@


 FRICTION IS A DRAG,
 AND ENTROPY AIN'T WHAT IT USED TO BE.
 Job cpu time:       0 days  1 hours 12 minutes 47.0 seconds.
 Elapsed time:       0 days  0 hours 10 minutes 24.0 seconds.
 File lengths (MBytes):  RWF=    176 Int=      0 D2E=      0 Chk=      8 Scr=      1
 Normal termination of Gaussian 16 at Sun Aug  9 03:13:16 2020.
