 Entering Gaussian System, Link 0=/home/ubuntu/g16/g16
 Input=4-MePhN2+_UB3LYP-aug-cc-pVDZ-Opt.gjf
 Output=4-MePhN2+_UB3LYP-aug-cc-pVDZ-Opt.log
 Initial command:
 /home/ubuntu/g16/l1.exe "/home/ubuntu/g16/Gau-9239.inp" -scrdir="/home/ubuntu/g16/"
 Entering Link 1 = /home/ubuntu/g16/l1.exe PID=      9241.
  
 Copyright (c) 1988,1990,1992,1993,1995,1998,2003,2009,2016,
            Gaussian, Inc.  All Rights Reserved.
  
 This is part of the Gaussian(R) 16 program.  It is based on
 the Gaussian(R) 09 system (copyright 2009, Gaussian, Inc.),
 the Gaussian(R) 03 system (copyright 2003, Gaussian, Inc.),
 the Gaussian(R) 98 system (copyright 1998, Gaussian, Inc.),
 the Gaussian(R) 94 system (copyright 1995, Gaussian, Inc.),
 the Gaussian 92(TM) system (copyright 1992, Gaussian, Inc.),
 the Gaussian 90(TM) system (copyright 1990, Gaussian, Inc.),
 the Gaussian 88(TM) system (copyright 1988, Gaussian, Inc.),
 the Gaussian 86(TM) system (copyright 1986, Carnegie Mellon
 University), and the Gaussian 82(TM) system (copyright 1983,
 Carnegie Mellon University). Gaussian is a federally registered
 trademark of Gaussian, Inc.
  
 This software contains proprietary and confidential information,
 including trade secrets, belonging to Gaussian, Inc.
  
 This software is provided under written license and may be
 used, copied, transmitted, or stored only in accord with that
 written license.
  
 The following legend is applicable only to US Government
 contracts under FAR:
  
                    RESTRICTED RIGHTS LEGEND
  
 Use, reproduction and disclosure by the US Government is
 subject to restrictions as set forth in subparagraphs (a)
 and (c) of the Commercial Computer Software - Restricted
 Rights clause in FAR 52.227-19.
  
 Gaussian, Inc.
 340 Quinnipiac St., Bldg. 40, Wallingford CT 06492
  
  
 ---------------------------------------------------------------
 Warning -- This program may not be used in any manner that
 competes with the business of Gaussian, Inc. or will provide
 assistance to any competitor of Gaussian, Inc.  The licensee
 of this program is prohibited from giving any competitor of
 Gaussian, Inc. access to this program.  By using this program,
 the user acknowledges that Gaussian, Inc. is engaged in the
 business of creating and licensing software in the field of
 computational chemistry and represents and warrants to the
 licensee that it is not a competitor of Gaussian, Inc. and that
 it will not use this program in any manner prohibited above.
 ---------------------------------------------------------------
  

 Cite this work as:
 Gaussian 16, Revision A.03,
 M. J. Frisch, G. W. Trucks, H. B. Schlegel, G. E. Scuseria, 
 M. A. Robb, J. R. Cheeseman, G. Scalmani, V. Barone, 
 G. A. Petersson, H. Nakatsuji, X. Li, M. Caricato, A. V. Marenich, 
 J. Bloino, B. G. Janesko, R. Gomperts, B. Mennucci, H. P. Hratchian, 
 J. V. Ortiz, A. F. Izmaylov, J. L. Sonnenberg, D. Williams-Young, 
 F. Ding, F. Lipparini, F. Egidi, J. Goings, B. Peng, A. Petrone, 
 T. Henderson, D. Ranasinghe, V. G. Zakrzewski, J. Gao, N. Rega, 
 G. Zheng, W. Liang, M. Hada, M. Ehara, K. Toyota, R. Fukuda, 
 J. Hasegawa, M. Ishida, T. Nakajima, Y. Honda, O. Kitao, H. Nakai, 
 T. Vreven, K. Throssell, J. A. Montgomery, Jr., J. E. Peralta, 
 F. Ogliaro, M. J. Bearpark, J. J. Heyd, E. N. Brothers, K. N. Kudin, 
 V. N. Staroverov, T. A. Keith, R. Kobayashi, J. Normand, 
 K. Raghavachari, A. P. Rendell, J. C. Burant, S. S. Iyengar, 
 J. Tomasi, M. Cossi, J. M. Millam, M. Klene, C. Adamo, R. Cammi, 
 J. W. Ochterski, R. L. Martin, K. Morokuma, O. Farkas, 
 J. B. Foresman, and D. J. Fox, Gaussian, Inc., Wallingford CT, 2016.
 
 ******************************************
 Gaussian 16:  ES64L-G16RevA.03 25-Dec-2016
                 9-Aug-2020 
 ******************************************
 %chk=4-MePhN2+_UB3LYP-aug-cc-pVDZ-Opt.chk
 %mem=500MW
 %nproc=7
 Will use up to    7 processors via shared memory.
 ----------------------------------------------------------------------
 #p opt=(maxcycles=777) freq ub3lyp/aug-cc-pVDZ pop=(Bonding,AllOrbital
 s,mk,no,nboread)
 ----------------------------------------------------------------------
 1/6=777,18=20,19=15,26=3,38=1/1,3;
 2/9=110,12=2,17=6,18=5,40=1/2;
 3/5=16,7=10,11=2,25=1,30=1,71=1,74=-5,116=2/1,2,3;
 4//1;
 5/5=2,38=5/2;
 6/7=2,8=2,9=2,10=2,15=8,20=1,22=-1,27=20,28=1,31=1,40=2,96=-1/1,2,7;
 7//1,2,3,16;
 1/6=777,18=20,19=15,26=3/3(2);
 2/9=110/2;
 99//99;
 2/9=110/2;
 3/5=16,7=10,11=2,25=1,30=1,71=1,74=-5,116=2/1,2,3;
 4/5=5,16=3,69=1/1;
 5/5=2,38=5/2;
 7//1,2,3,16;
 1/6=777,18=20,19=15,26=3/3(-5);
 2/9=110/2;
 6/7=2,8=2,9=2,10=2,15=8,19=2,20=1,22=-1,27=20,28=1,31=1,40=2,96=-1/1,2,7;
 99/9=1/99;
 Leave Link    1 at Sun Aug  9 17:38:50 2020, MaxMem=   524288000 cpu:               0.4 elap:               0.1
 (Enter /home/ubuntu/g16/l101.exe)
 ----------------------------
 4-MePhN2+_UB3LYP-aug-cc-pVDZ
 ----------------------------
 Symbolic Z-matrix:
 Charge =  1 Multiplicity = 1
 C                     0.39785  -1.24357  -0.00345 
 C                    -0.98608  -1.21885  -0.00999 
 C                     1.06771   0.        0.00029 
 C                    -1.70313   0.00006  -0.0109 
 C                     0.3979    1.24358  -0.00344 
 C                    -0.98604   1.21893  -0.00999 
 N                     2.44265  -0.00002   0.0043 
 N                     3.55848  -0.00004   0.00854 
 H                    -1.52984  -2.16292  -0.01658 
 H                     0.95582   2.17857  -0.00357 
 H                    -1.52976   2.16302  -0.0166 
 H                     0.95574  -2.17858  -0.00358 
 C                    -3.20169  -0.00001   0.01055 
 H                    -3.61256  -0.89363  -0.47408 
 H                    -3.55365  -0.00288   1.05551 
 H                    -3.61271   0.89603  -0.4694 
 
 ITRead=  0  0  0  0  0  0  0  0  0  0  0  0  0  0  0  0
 MicOpt= -1 -1 -1 -1 -1 -1 -1 -1 -1 -1 -1 -1 -1 -1 -1 -1
 NAtoms=     16 NQM=       16 NQMF=       0 NMMI=      0 NMMIF=      0
                NMic=       0 NMicF=      0.
                    Isotopes and Nuclear Properties:
 (Nuclear quadrupole moments (NQMom) in fm**2, nuclear magnetic moments (NMagM)
  in nuclear magnetons)

  Atom         1           2           3           4           5           6           7           8           9          10
 IAtWgt=          12          12          12          12          12          12          14          14           1           1
 AtmWgt=  12.0000000  12.0000000  12.0000000  12.0000000  12.0000000  12.0000000  14.0030740  14.0030740   1.0078250   1.0078250
 NucSpn=           0           0           0           0           0           0           2           2           1           1
 AtZEff=  -0.0000000  -0.0000000  -0.0000000  -0.0000000  -0.0000000  -0.0000000  -0.0000000  -0.0000000  -0.0000000  -0.0000000
 NQMom=    0.0000000   0.0000000   0.0000000   0.0000000   0.0000000   0.0000000   2.0440000   2.0440000   0.0000000   0.0000000
 NMagM=    0.0000000   0.0000000   0.0000000   0.0000000   0.0000000   0.0000000   0.4037610   0.4037610   2.7928460   2.7928460
 AtZNuc=   6.0000000   6.0000000   6.0000000   6.0000000   6.0000000   6.0000000   7.0000000   7.0000000   1.0000000   1.0000000

  Atom        11          12          13          14          15          16
 IAtWgt=           1           1          12           1           1           1
 AtmWgt=   1.0078250   1.0078250  12.0000000   1.0078250   1.0078250   1.0078250
 NucSpn=           1           1           0           1           1           1
 AtZEff=  -0.0000000  -0.0000000  -0.0000000  -0.0000000  -0.0000000  -0.0000000
 NQMom=    0.0000000   0.0000000   0.0000000   0.0000000   0.0000000   0.0000000
 NMagM=    2.7928460   2.7928460   0.0000000   2.7928460   2.7928460   2.7928460
 AtZNuc=   1.0000000   1.0000000   6.0000000   1.0000000   1.0000000   1.0000000
 Leave Link  101 at Sun Aug  9 17:38:50 2020, MaxMem=   524288000 cpu:               1.4 elap:               0.2
 (Enter /home/ubuntu/g16/l103.exe)

 GradGradGradGradGradGradGradGradGradGradGradGradGradGradGradGradGradGrad
 Berny optimization.
 Initialization pass.
                           ----------------------------
                           !    Initial Parameters    !
                           ! (Angstroms and Degrees)  !
 --------------------------                            --------------------------
 ! Name  Definition              Value          Derivative Info.                !
 --------------------------------------------------------------------------------
 ! R1    R(1,2)                  1.3842         estimate D2E/DX2                !
 ! R2    R(1,3)                  1.4125         estimate D2E/DX2                !
 ! R3    R(1,12)                 1.0888         estimate D2E/DX2                !
 ! R4    R(2,4)                  1.4142         estimate D2E/DX2                !
 ! R5    R(2,9)                  1.0895         estimate D2E/DX2                !
 ! R6    R(3,5)                  1.4125         estimate D2E/DX2                !
 ! R7    R(3,7)                  1.3749         estimate D2E/DX2                !
 ! R8    R(4,6)                  1.4142         estimate D2E/DX2                !
 ! R9    R(4,13)                 1.4987         estimate D2E/DX2                !
 ! R10   R(5,6)                  1.3842         estimate D2E/DX2                !
 ! R11   R(5,10)                 1.0888         estimate D2E/DX2                !
 ! R12   R(6,11)                 1.0895         estimate D2E/DX2                !
 ! R13   R(7,8)                  1.1158         estimate D2E/DX2                !
 ! R14   R(13,14)                1.0965         estimate D2E/DX2                !
 ! R15   R(13,15)                1.1026         estimate D2E/DX2                !
 ! R16   R(13,16)                1.0964         estimate D2E/DX2                !
 ! A1    A(2,1,3)              117.2866         estimate D2E/DX2                !
 ! A2    A(2,1,12)             121.846          estimate D2E/DX2                !
 ! A3    A(3,1,12)             120.8672         estimate D2E/DX2                !
 ! A4    A(1,2,4)              121.4902         estimate D2E/DX2                !
 ! A5    A(1,2,9)              118.9185         estimate D2E/DX2                !
 ! A6    A(4,2,9)              119.5912         estimate D2E/DX2                !
 ! A7    A(1,3,5)              123.3822         estimate D2E/DX2                !
 ! A8    A(1,3,7)              118.3089         estimate D2E/DX2                !
 ! A9    A(5,3,7)              118.3086         estimate D2E/DX2                !
 ! A10   A(2,4,6)              119.0636         estimate D2E/DX2                !
 ! A11   A(2,4,13)             120.4603         estimate D2E/DX2                !
 ! A12   A(6,4,13)             120.4679         estimate D2E/DX2                !
 ! A13   A(3,5,6)              117.2875         estimate D2E/DX2                !
 ! A14   A(3,5,10)             120.8673         estimate D2E/DX2                !
 ! A15   A(6,5,10)             121.845          estimate D2E/DX2                !
 ! A16   A(4,6,5)              121.4895         estimate D2E/DX2                !
 ! A17   A(4,6,11)             119.5913         estimate D2E/DX2                !
 ! A18   A(5,6,11)             118.919          estimate D2E/DX2                !
 ! A19   A(4,13,14)            111.6167         estimate D2E/DX2                !
 ! A20   A(4,13,15)            109.4344         estimate D2E/DX2                !
 ! A21   A(4,13,16)            111.6248         estimate D2E/DX2                !
 ! A22   A(14,13,15)           107.2858         estimate D2E/DX2                !
 ! A23   A(14,13,16)           109.3959         estimate D2E/DX2                !
 ! A24   A(15,13,16)           107.2959         estimate D2E/DX2                !
 ! A25   L(3,7,8,12,-1)        179.9999         estimate D2E/DX2                !
 ! A26   L(3,7,8,12,-2)        180.0613         estimate D2E/DX2                !
 ! D1    D(3,1,2,4)             -0.0915         estimate D2E/DX2                !
 ! D2    D(3,1,2,9)            179.7847         estimate D2E/DX2                !
 ! D3    D(12,1,2,4)          -179.9464         estimate D2E/DX2                !
 ! D4    D(12,1,2,9)            -0.0702         estimate D2E/DX2                !
 ! D5    D(2,1,3,5)             -0.0548         estimate D2E/DX2                !
 ! D6    D(2,1,3,7)           -179.8817         estimate D2E/DX2                !
 ! D7    D(12,1,3,5)           179.8015         estimate D2E/DX2                !
 ! D8    D(12,1,3,7)            -0.0254         estimate D2E/DX2                !
 ! D9    D(1,2,4,6)              0.2322         estimate D2E/DX2                !
 ! D10   D(1,2,4,13)          -178.732          estimate D2E/DX2                !
 ! D11   D(9,2,4,6)           -179.6432         estimate D2E/DX2                !
 ! D12   D(9,2,4,13)             1.3926         estimate D2E/DX2                !
 ! D13   D(1,3,5,6)              0.0544         estimate D2E/DX2                !
 ! D14   D(1,3,5,10)          -179.8011         estimate D2E/DX2                !
 ! D15   D(7,3,5,6)            179.8813         estimate D2E/DX2                !
 ! D16   D(7,3,5,10)             0.0258         estimate D2E/DX2                !
 ! D17   D(2,4,6,5)             -0.2327         estimate D2E/DX2                !
 ! D18   D(2,4,6,11)           179.642          estimate D2E/DX2                !
 ! D19   D(13,4,6,5)           178.7315         estimate D2E/DX2                !
 ! D20   D(13,4,6,11)           -1.3938         estimate D2E/DX2                !
 ! D21   D(2,4,13,14)          -29.2857         estimate D2E/DX2                !
 ! D22   D(2,4,13,15)           89.3177         estimate D2E/DX2                !
 ! D23   D(2,4,13,16)         -152.0615         estimate D2E/DX2                !
 ! D24   D(6,4,13,14)          151.7646         estimate D2E/DX2                !
 ! D25   D(6,4,13,15)          -89.632          estimate D2E/DX2                !
 ! D26   D(6,4,13,16)           28.9888         estimate D2E/DX2                !
 ! D27   D(3,5,6,4)              0.0925         estimate D2E/DX2                !
 ! D28   D(3,5,6,11)          -179.783          estimate D2E/DX2                !
 ! D29   D(10,5,6,4)           179.9464         estimate D2E/DX2                !
 ! D30   D(10,5,6,11)            0.0709         estimate D2E/DX2                !
 --------------------------------------------------------------------------------
 Trust Radius=3.00D-01 FncErr=1.00D-07 GrdErr=1.00D-06 EigMax=2.50D+02 EigMin=1.00D-04
 Number of steps in this run=    100 maximum allowed number of steps=    100.
 GradGradGradGradGradGradGradGradGradGradGradGradGradGradGradGradGradGrad

 Leave Link  103 at Sun Aug  9 17:38:51 2020, MaxMem=   524288000 cpu:               0.0 elap:               0.0
 (Enter /home/ubuntu/g16/l202.exe)
                          Input orientation:                          
 ---------------------------------------------------------------------
 Center     Atomic      Atomic             Coordinates (Angstroms)
 Number     Number       Type             X           Y           Z
 ---------------------------------------------------------------------
      1          6           0        0.397850   -1.243570   -0.003450
      2          6           0       -0.986080   -1.218850   -0.009990
      3          6           0        1.067710    0.000000    0.000290
      4          6           0       -1.703130    0.000060   -0.010900
      5          6           0        0.397900    1.243580   -0.003440
      6          6           0       -0.986040    1.218930   -0.009990
      7          7           0        2.442650   -0.000020    0.004300
      8          7           0        3.558480   -0.000040    0.008540
      9          1           0       -1.529840   -2.162920   -0.016580
     10          1           0        0.955820    2.178570   -0.003570
     11          1           0       -1.529760    2.163020   -0.016600
     12          1           0        0.955740   -2.178580   -0.003580
     13          6           0       -3.201690   -0.000010    0.010550
     14          1           0       -3.612560   -0.893630   -0.474080
     15          1           0       -3.553650   -0.002880    1.055510
     16          1           0       -3.612710    0.896030   -0.469400
 ---------------------------------------------------------------------
                    Distance matrix (angstroms):
                    1          2          3          4          5
     1  C    0.000000
     2  C    1.384166   0.000000
     3  C    1.412513   2.388253   0.000000
     4  C    2.441473   1.414179   2.770863   0.000000
     5  C    2.487150   2.824713   1.412498   2.441460   0.000000
     6  C    2.824730   2.437780   2.388260   1.414165   1.384175
     7  N    2.393258   3.638948   1.374946   4.145808   2.393241
     8  N    3.396482   4.705196   2.490784   5.261646   3.396469
     9  H    2.135735   1.089489   3.380203   2.169918   3.914153
    10  H    3.467329   3.913244   2.181445   3.437437   1.088798
    11  H    3.914168   3.425299   3.380206   2.169905   2.135747
    12  H    1.088800   2.166053   2.181459   3.437458   3.467328
    13  C    3.808323   2.528818   4.269412   1.498714   3.808380
    14  H    4.053065   2.686921   4.788374   2.158504   4.568693
    15  H    4.274934   3.034187   4.740302   2.135805   4.276656
    16  H    4.569419   3.403375   4.788508   2.158583   4.052518
                    6          7          8          9         10
     6  C    0.000000
     7  N    3.638950   0.000000
     8  N    4.705199   1.115838   0.000000
     9  H    3.425299   4.523190   5.528986   0.000000
    10  H    2.166049   2.637609   3.394161   5.002720   0.000000
    11  H    1.089487   4.523187   5.528982   4.325940   2.485663
    12  H    3.913263   2.637629   3.394177   2.485663   4.357150
    13  C    2.528901   5.644343   6.760170   2.733861   4.693751
    14  H    3.402484   6.139459   7.242599   2.481557   5.525386
    15  H    3.036566   6.087747   7.188779   3.148167   5.120126
    16  H    2.686023   6.139600   7.242744   3.728347   4.767953
                   11         12         13         14         15
    11  H    0.000000
    12  H    5.002736   0.000000
    13  C    2.734005   4.693676   0.000000
    14  H    3.726990   4.768840   1.096466   0.000000
    15  H    3.152249   5.117611   1.102645   1.771031   0.000000
    16  H    2.479712   5.526387   1.096438   1.789666   1.771123
                   16
    16  H    0.000000
 Stoichiometry    C7H7N2(1+)
 Framework group  C1[X(C7H7N2)]
 Deg. of freedom    42
 Full point group                 C1      NOp   1
 Largest Abelian subgroup         C1      NOp   1
 Largest concise Abelian subgroup C1      NOp   1
                         Standard orientation:                         
 ---------------------------------------------------------------------
 Center     Atomic      Atomic             Coordinates (Angstroms)
 Number     Number       Type             X           Y           Z
 ---------------------------------------------------------------------
      1          6           0        0.397848   -1.243571   -0.003450
      2          6           0       -0.986082   -1.218850   -0.009990
      3          6           0        1.067709   -0.000001    0.000290
      4          6           0       -1.703131    0.000060   -0.010900
      5          6           0        0.397899    1.243579   -0.003440
      6          6           0       -0.986041    1.218930   -0.009990
      7          7           0        2.442649   -0.000021    0.004300
      8          7           0        3.558479   -0.000042    0.008540
      9          1           0       -1.529842   -2.162920   -0.016580
     10          1           0        0.955820    2.178569   -0.003570
     11          1           0       -1.529760    2.163020   -0.016600
     12          1           0        0.955738   -2.178581   -0.003580
     13          6           0       -3.201691   -0.000009    0.010550
     14          1           0       -3.612561   -0.893629   -0.474080
     15          1           0       -3.553651   -0.002879    1.055510
     16          1           0       -3.612711    0.896031   -0.469400
 ---------------------------------------------------------------------
 Rotational constants (GHZ):           5.3219457           0.9997777           0.8461118
 Leave Link  202 at Sun Aug  9 17:38:51 2020, MaxMem=   524288000 cpu:               0.0 elap:               0.0
 (Enter /home/ubuntu/g16/l301.exe)
 Standard basis: Aug-CC-pVDZ (5D, 7F)
 Ernie: Thresh=  0.10000D-02 Tol=  0.10000D-05 Strict=F.
 Ernie:  18 primitive shells out of 274 were deleted.
 There are   288 symmetry adapted cartesian basis functions of A   symmetry.
 There are   270 symmetry adapted basis functions of A   symmetry.
   270 basis functions,   464 primitive gaussians,   288 cartesian basis functions
    31 alpha electrons       31 beta electrons
       nuclear repulsion energy       387.9000253155 Hartrees.
 IExCor=  402 DFT=T Ex+Corr=B3LYP ExCW=0 ScaHFX=  0.200000
 ScaDFX=  0.800000  0.720000  1.000000  0.810000 ScalE2=  1.000000  1.000000
 IRadAn=      5 IRanWt=     -1 IRanGd=            0 ICorTp=0 IEmpDi=  4
 NAtoms=   16 NActive=   16 NUniq=   16 SFac= 1.00D+00 NAtFMM=   60 NAOKFM=F Big=F
 Integral buffers will be    131072 words long.
 Raffenetti 2 integral format.
 Two-electron integral symmetry is turned on.
 Leave Link  301 at Sun Aug  9 17:38:51 2020, MaxMem=   524288000 cpu:               0.2 elap:               0.0
 (Enter /home/ubuntu/g16/l302.exe)
 NPDir=0 NMtPBC=     1 NCelOv=     1 NCel=       1 NClECP=     1 NCelD=      1
         NCelK=      1 NCelE2=     1 NClLst=     1 CellRange=     0.0.
 One-electron integrals computed using PRISM.
 One-electron integral symmetry used in STVInt
 NBasis=   270 RedAO= T EigKep=  2.09D-06  NBF=   270
 NBsUse=   270 1.00D-06 EigRej= -1.00D+00 NBFU=   270
 Precomputing XC quadrature grid using
 IXCGrd= 4 IRadAn=           5 IRanWt=          -1 IRanGd=           0 AccXCQ= 0.00D+00.
 Generated NRdTot=       0 NPtTot=           0 NUsed=           0 NTot=          32
 NSgBfM=   288   288   288   288   288 MxSgAt=    16 MxSgA2=    16.
 Leave Link  302 at Sun Aug  9 17:38:51 2020, MaxMem=   524288000 cpu:               2.6 elap:               0.4
 (Enter /home/ubuntu/g16/l303.exe)
 DipDrv:  MaxL=1.
 Leave Link  303 at Sun Aug  9 17:38:51 2020, MaxMem=   524288000 cpu:               0.3 elap:               0.0
 (Enter /home/ubuntu/g16/l401.exe)
 ExpMin= 2.97D-02 ExpMax= 9.05D+03 ExpMxC= 3.09D+02 IAcc=3 IRadAn=         5 AccDes= 0.00D+00
 Harris functional with IExCor=  402 and IRadAn=       5 diagonalized for initial guess.
 HarFok:  IExCor=  402 AccDes= 0.00D+00 IRadAn=         5 IDoV= 1 UseB2=F ITyADJ=14
 ICtDFT=  3500011 ScaDFX=  1.000000  1.000000  1.000000  1.000000
 FoFCou: FMM=F IPFlag=           0 FMFlag=      100000 FMFlg1=           0
         NFxFlg=           0 DoJE=T BraDBF=F KetDBF=T FulRan=T
         wScrn=  0.000000 ICntrl=       500 IOpCl=  0 I1Cent=   200000004 NGrid=           0
         NMat0=    1 NMatS0=      1 NMatT0=    0 NMatD0=    1 NMtDS0=    0 NMtDT0=    0
 Petite list used in FoFCou.
 Harris En= -380.253548630248    
 JPrj=0 DoOrth=F DoCkMO=F.
 Initial guess <Sx>= 0.0000 <Sy>= 0.0000 <Sz>= 0.0000 <S**2>=-0.0000 S=-0.0000
 Leave Link  401 at Sun Aug  9 17:38:54 2020, MaxMem=   524288000 cpu:              18.5 elap:               2.6
 (Enter /home/ubuntu/g16/l502.exe)
 Integral symmetry usage will be decided dynamically.
 UHF open shell SCF:
 Using DIIS extrapolation, IDIIS=  1040.
 NGot=   524288000 LenX=   524117314 LenY=   524033929
 Requested convergence on RMS density matrix=1.00D-08 within 128 cycles.
 Requested convergence on MAX density matrix=1.00D-06.
 Requested convergence on             energy=1.00D-06.
 No special actions if energy rises.
 Fock matrices will be formed incrementally for  20 cycles.

 Cycle   1  Pass 1  IDiag  1:
 FoFJK:  IHMeth= 1 ICntrl=       0 DoSepK=F KAlg= 0 I1Cent=           0 FoldK=F
 IRaf= 980000000 NMat=       1 IRICut=       1 DoRegI=T DoRafI=F ISym2E= 0 IDoP0=0 IntGTp=1.
 FoFCou: FMM=F IPFlag=           0 FMFlag=      100000 FMFlg1=           0
         NFxFlg=           0 DoJE=F BraDBF=F KetDBF=F FulRan=T
         wScrn=  0.000000 ICntrl=         0 IOpCl=  1 I1Cent=           0 NGrid=           0
         NMat0=    1 NMatS0=      1 NMatT0=    0 NMatD0=    1 NMtDS0=    0 NMtDT0=    0
 Symmetry not used in FoFCou.
 E= -379.980759457223    
 DIIS: error= 1.93D-02 at cycle   1 NSaved=   1.
 NSaved= 1 IEnMin= 1 EnMin= -379.980759457223     IErMin= 1 ErrMin= 1.93D-02
 ErrMax= 1.93D-02  0.00D+00 EMaxC= 1.00D-01 BMatC= 7.53D-01 BMatP= 7.53D-01
 IDIUse=3 WtCom= 8.07D-01 WtEn= 1.93D-01
 Coeff-Com:  0.100D+01
 Coeff-En:   0.100D+01
 Coeff:      0.100D+01
 Gap=     0.142 Goal=   None    Shift=    0.000
 Gap=     0.142 Goal=   None    Shift=    0.000
 GapD=    0.142 DampG=1.000 DampE=0.500 DampFc=0.5000 IDamp=-1.
 Damping current iteration by 5.00D-01
 RMSDP=6.61D-02 MaxDP=2.93D+00              OVMax= 8.72D-01

 Cycle   2  Pass 1  IDiag  1:
 RMSU=  1.26D-02    CP:  8.19D-01
 E= -379.183060660923     Delta-E=        0.797698796300 Rises=F Damp=T
 DIIS: error= 3.08D-02 at cycle   2 NSaved=   2.
 NSaved= 2 IEnMin= 1 EnMin= -379.980759457223     IErMin= 1 ErrMin= 1.93D-02
 ErrMax= 3.08D-02  0.00D+00 EMaxC= 1.00D-01 BMatC= 1.32D+00 BMatP= 7.53D-01
 IDIUse=2 WtCom= 0.00D+00 WtEn= 1.00D+00
 Coeff-En:   0.841D+00 0.159D+00
 Coeff:      0.841D+00 0.159D+00
 Gap=     0.046 Goal=   None    Shift=    0.000
 Gap=     0.046 Goal=   None    Shift=    0.000
 RMSDP=3.47D-02 MaxDP=1.66D+00 DE= 7.98D-01 OVMax= 1.00D+00

 Cycle   3  Pass 1  IDiag  1:
 RMSU=  6.27D-03    CP:  6.21D-01  1.54D+00
 E= -380.016707180661     Delta-E=       -0.833646519738 Rises=F Damp=F
 DIIS: error= 1.97D-02 at cycle   3 NSaved=   3.
 NSaved= 3 IEnMin= 3 EnMin= -380.016707180661     IErMin= 1 ErrMin= 1.93D-02
 ErrMax= 1.97D-02  0.00D+00 EMaxC= 1.00D-01 BMatC= 6.92D-01 BMatP= 7.53D-01
 IDIUse=3 WtCom= 8.03D-01 WtEn= 1.97D-01
 Coeff-Com:  0.485D+00 0.367D-01 0.478D+00
 Coeff-En:   0.462D+00 0.000D+00 0.538D+00
 Coeff:      0.481D+00 0.294D-01 0.490D+00
 Gap=     0.173 Goal=   None    Shift=    0.000
 Gap=     0.173 Goal=   None    Shift=    0.000
 RMSDP=8.35D-03 MaxDP=2.64D-01 DE=-8.34D-01 OVMax= 2.18D-01

 Cycle   4  Pass 1  IDiag  1:
 RMSU=  4.83D-03    CP:  6.37D-01  1.04D+00  1.12D+00
 E= -380.182062302152     Delta-E=       -0.165355121491 Rises=F Damp=F
 DIIS: error= 8.76D-03 at cycle   4 NSaved=   4.
 NSaved= 4 IEnMin= 4 EnMin= -380.182062302152     IErMin= 4 ErrMin= 8.76D-03
 ErrMax= 8.76D-03  0.00D+00 EMaxC= 1.00D-01 BMatC= 1.20D-01 BMatP= 6.92D-01
 IDIUse=3 WtCom= 9.12D-01 WtEn= 8.76D-02
 Coeff-Com:  0.251D+00-0.248D-01 0.354D+00 0.420D+00
 Coeff-En:   0.000D+00 0.000D+00 0.821D-01 0.918D+00
 Coeff:      0.229D+00-0.227D-01 0.330D+00 0.464D+00
 Gap=     0.156 Goal=   None    Shift=    0.000
 Gap=     0.156 Goal=   None    Shift=    0.000
 RMSDP=2.76D-03 MaxDP=8.77D-02 DE=-1.65D-01 OVMax= 6.50D-02

 Cycle   5  Pass 1  IDiag  1:
 RMSU=  1.95D-03    CP:  6.45D-01  1.04D+00  1.05D+00  7.38D-01
 E= -380.204042063888     Delta-E=       -0.021979761736 Rises=F Damp=F
 DIIS: error= 4.34D-03 at cycle   5 NSaved=   5.
 NSaved= 5 IEnMin= 5 EnMin= -380.204042063888     IErMin= 5 ErrMin= 4.34D-03
 ErrMax= 4.34D-03  0.00D+00 EMaxC= 1.00D-01 BMatC= 2.29D-02 BMatP= 1.20D-01
 IDIUse=3 WtCom= 9.57D-01 WtEn= 4.34D-02
 Coeff-Com:  0.281D-01-0.223D-01 0.642D-01 0.318D+00 0.612D+00
 Coeff-En:   0.000D+00 0.000D+00 0.000D+00 0.219D+00 0.781D+00
 Coeff:      0.268D-01-0.213D-01 0.614D-01 0.314D+00 0.619D+00
 Gap=     0.159 Goal=   None    Shift=    0.000
 Gap=     0.159 Goal=   None    Shift=    0.000
 RMSDP=7.99D-04 MaxDP=2.17D-02 DE=-2.20D-02 OVMax= 1.85D-02

 Cycle   6  Pass 1  IDiag  1:
 RMSU=  4.14D-04    CP:  6.42D-01  1.03D+00  1.05D+00  7.80D-01  7.49D-01
 E= -380.208876043699     Delta-E=       -0.004833979811 Rises=F Damp=F
 DIIS: error= 1.21D-03 at cycle   6 NSaved=   6.
 NSaved= 6 IEnMin= 6 EnMin= -380.208876043699     IErMin= 6 ErrMin= 1.21D-03
 ErrMax= 1.21D-03  0.00D+00 EMaxC= 1.00D-01 BMatC= 1.22D-03 BMatP= 2.29D-02
 IDIUse=3 WtCom= 9.88D-01 WtEn= 1.21D-02
 Coeff-Com:  0.112D-01-0.185D-01 0.215D-01 0.139D+00 0.327D+00 0.520D+00
 Coeff-En:   0.000D+00 0.000D+00 0.000D+00 0.000D+00 0.000D+00 0.100D+01
 Coeff:      0.110D-01-0.183D-01 0.212D-01 0.137D+00 0.323D+00 0.526D+00
 Gap=     0.161 Goal=   None    Shift=    0.000
 Gap=     0.161 Goal=   None    Shift=    0.000
 RMSDP=3.01D-04 MaxDP=1.12D-02 DE=-4.83D-03 OVMax= 8.46D-03

 Cycle   7  Pass 1  IDiag  1:
 RMSU=  1.85D-04    CP:  6.41D-01  1.03D+00  1.06D+00  7.94D-01  6.82D-01
                    CP:  8.74D-01
 E= -380.209148670382     Delta-E=       -0.000272626683 Rises=F Damp=F
 DIIS: error= 5.48D-04 at cycle   7 NSaved=   7.
 NSaved= 7 IEnMin= 7 EnMin= -380.209148670382     IErMin= 7 ErrMin= 5.48D-04
 ErrMax= 5.48D-04  0.00D+00 EMaxC= 1.00D-01 BMatC= 3.63D-04 BMatP= 1.22D-03
 IDIUse=3 WtCom= 9.95D-01 WtEn= 5.48D-03
 Coeff-Com:  0.573D-02-0.112D-01-0.746D-03 0.140D-01 0.749D-01 0.328D+00
 Coeff-Com:  0.589D+00
 Coeff-En:   0.000D+00 0.000D+00 0.000D+00 0.000D+00 0.000D+00 0.000D+00
 Coeff-En:   0.100D+01
 Coeff:      0.570D-02-0.111D-01-0.742D-03 0.140D-01 0.745D-01 0.327D+00
 Coeff:      0.591D+00
 Gap=     0.161 Goal=   None    Shift=    0.000
 Gap=     0.161 Goal=   None    Shift=    0.000
 RMSDP=1.63D-04 MaxDP=7.50D-03 DE=-2.73D-04 OVMax= 2.49D-03

 Cycle   8  Pass 1  IDiag  1:
 RMSU=  1.05D-04    CP:  6.41D-01  1.03D+00  1.06D+00  7.91D-01  7.12D-01
                    CP:  8.50D-01  5.52D-01
 E= -380.209226692173     Delta-E=       -0.000078021791 Rises=F Damp=F
 DIIS: error= 3.50D-04 at cycle   8 NSaved=   8.
 NSaved= 8 IEnMin= 8 EnMin= -380.209226692173     IErMin= 8 ErrMin= 3.50D-04
 ErrMax= 3.50D-04  0.00D+00 EMaxC= 1.00D-01 BMatC= 7.80D-05 BMatP= 3.63D-04
 IDIUse=3 WtCom= 9.96D-01 WtEn= 3.50D-03
 Coeff-Com:  0.390D-02-0.237D-02-0.157D-02-0.240D-01-0.589D-01-0.133D+00
 Coeff-Com:  0.568D-02 0.121D+01
 Coeff-En:   0.000D+00 0.000D+00 0.000D+00 0.000D+00 0.000D+00 0.000D+00
 Coeff-En:   0.000D+00 0.100D+01
 Coeff:      0.389D-02-0.236D-02-0.156D-02-0.239D-01-0.587D-01-0.133D+00
 Coeff:      0.566D-02 0.121D+01
 Gap=     0.162 Goal=   None    Shift=    0.000
 Gap=     0.162 Goal=   None    Shift=    0.000
 RMSDP=8.56D-05 MaxDP=2.41D-03 DE=-7.80D-05 OVMax= 3.61D-03

 Cycle   9  Pass 1  IDiag  1:
 RMSU=  5.59D-05    CP:  6.41D-01  1.03D+00  1.07D+00  7.94D-01  7.07D-01
                    CP:  8.52D-01  5.18D-01  1.13D+00
 E= -380.209255221937     Delta-E=       -0.000028529764 Rises=F Damp=F
 DIIS: error= 8.56D-05 at cycle   9 NSaved=   9.
 NSaved= 9 IEnMin= 9 EnMin= -380.209255221937     IErMin= 9 ErrMin= 8.56D-05
 ErrMax= 8.56D-05  0.00D+00 EMaxC= 1.00D-01 BMatC= 8.99D-06 BMatP= 7.80D-05
 IDIUse=1 WtCom= 1.00D+00 WtEn= 0.00D+00
 Coeff-Com:  0.163D-02-0.116D-03-0.438D-03-0.114D-01-0.369D-01-0.109D+00
 Coeff-Com: -0.103D+00 0.663D+00 0.596D+00
 Coeff:      0.163D-02-0.116D-03-0.438D-03-0.114D-01-0.369D-01-0.109D+00
 Coeff:     -0.103D+00 0.663D+00 0.596D+00
 Gap=     0.162 Goal=   None    Shift=    0.000
 Gap=     0.162 Goal=   None    Shift=    0.000
 RMSDP=3.47D-05 MaxDP=1.26D-03 DE=-2.85D-05 OVMax= 9.28D-04

 Cycle  10  Pass 1  IDiag  1:
 RMSU=  1.94D-05    CP:  6.41D-01  1.03D+00  1.07D+00  7.94D-01  7.05D-01
                    CP:  8.59D-01  5.75D-01  1.26D+00  7.76D-01
 E= -380.209257320939     Delta-E=       -0.000002099003 Rises=F Damp=F
 DIIS: error= 2.28D-05 at cycle  10 NSaved=  10.
 NSaved=10 IEnMin=10 EnMin= -380.209257320939     IErMin=10 ErrMin= 2.28D-05
 ErrMax= 2.28D-05  0.00D+00 EMaxC= 1.00D-01 BMatC= 9.02D-07 BMatP= 8.99D-06
 IDIUse=1 WtCom= 1.00D+00 WtEn= 0.00D+00
 Coeff-Com:  0.217D-03 0.534D-04 0.995D-04 0.526D-03-0.298D-02-0.898D-02
 Coeff-Com: -0.365D-01 0.104D+00 0.240D+00 0.703D+00
 Coeff:      0.217D-03 0.534D-04 0.995D-04 0.526D-03-0.298D-02-0.898D-02
 Coeff:     -0.365D-01 0.104D+00 0.240D+00 0.703D+00
 Gap=     0.162 Goal=   None    Shift=    0.000
 Gap=     0.162 Goal=   None    Shift=    0.000
 RMSDP=1.22D-05 MaxDP=5.95D-04 DE=-2.10D-06 OVMax= 1.40D-04

 Cycle  11  Pass 1  IDiag  1:
 RMSU=  6.64D-06    CP:  6.41D-01  1.03D+00  1.07D+00  7.94D-01  7.04D-01
                    CP:  8.58D-01  5.50D-01  1.24D+00  7.92D-01  7.84D-01
 E= -380.209257541039     Delta-E=       -0.000000220100 Rises=F Damp=F
 DIIS: error= 6.01D-06 at cycle  11 NSaved=  11.
 NSaved=11 IEnMin=11 EnMin= -380.209257541039     IErMin=11 ErrMin= 6.01D-06
 ErrMax= 6.01D-06  0.00D+00 EMaxC= 1.00D-01 BMatC= 4.24D-08 BMatP= 9.02D-07
 IDIUse=1 WtCom= 1.00D+00 WtEn= 0.00D+00
 Coeff-Com:  0.285D-04 0.154D-04 0.528D-04 0.636D-03 0.327D-03 0.204D-02
 Coeff-Com: -0.107D-01 0.222D-01 0.802D-01 0.276D+00 0.629D+00
 Coeff:      0.285D-04 0.154D-04 0.528D-04 0.636D-03 0.327D-03 0.204D-02
 Coeff:     -0.107D-01 0.222D-01 0.802D-01 0.276D+00 0.629D+00
 Gap=     0.162 Goal=   None    Shift=    0.000
 Gap=     0.162 Goal=   None    Shift=    0.000
 RMSDP=3.18D-06 MaxDP=9.95D-05 DE=-2.20D-07 OVMax= 4.22D-05

 Cycle  12  Pass 1  IDiag  1:
 RMSU=  1.81D-06    CP:  6.41D-01  1.03D+00  1.07D+00  7.94D-01  7.05D-01
                    CP:  8.58D-01  5.54D-01  1.22D+00  7.91D-01  7.94D-01
                    CP:  9.40D-01
 E= -380.209257554145     Delta-E=       -0.000000013106 Rises=F Damp=F
 DIIS: error= 2.51D-06 at cycle  12 NSaved=  12.
 NSaved=12 IEnMin=12 EnMin= -380.209257554145     IErMin=12 ErrMin= 2.51D-06
 ErrMax= 2.51D-06  0.00D+00 EMaxC= 1.00D-01 BMatC= 6.28D-09 BMatP= 4.24D-08
 IDIUse=1 WtCom= 1.00D+00 WtEn= 0.00D+00
 Coeff-Com: -0.255D-04 0.671D-06-0.293D-05 0.293D-03 0.919D-03 0.321D-02
 Coeff-Com:  0.138D-02-0.633D-02 0.983D-03 0.900D-02 0.255D+00 0.735D+00
 Coeff:     -0.255D-04 0.671D-06-0.293D-05 0.293D-03 0.919D-03 0.321D-02
 Coeff:      0.138D-02-0.633D-02 0.983D-03 0.900D-02 0.255D+00 0.735D+00
 Gap=     0.162 Goal=   None    Shift=    0.000
 Gap=     0.162 Goal=   None    Shift=    0.000
 RMSDP=7.73D-07 MaxDP=3.29D-05 DE=-1.31D-08 OVMax= 1.30D-05

 Cycle  13  Pass 1  IDiag  1:
 RMSU=  3.71D-07    CP:  6.41D-01  1.03D+00  1.07D+00  7.94D-01  7.05D-01
                    CP:  8.58D-01  5.52D-01  1.22D+00  7.91D-01  7.92D-01
                    CP:  9.77D-01  8.38D-01
 E= -380.209257555855     Delta-E=       -0.000000001710 Rises=F Damp=F
 DIIS: error= 3.12D-07 at cycle  13 NSaved=  13.
 NSaved=13 IEnMin=13 EnMin= -380.209257555855     IErMin=13 ErrMin= 3.12D-07
 ErrMax= 3.12D-07  0.00D+00 EMaxC= 1.00D-01 BMatC= 1.50D-10 BMatP= 6.28D-09
 IDIUse=1 WtCom= 1.00D+00 WtEn= 0.00D+00
 Coeff-Com: -0.802D-05-0.199D-06-0.427D-05 0.327D-04 0.229D-03 0.721D-03
 Coeff-Com:  0.103D-02-0.281D-02-0.438D-02-0.180D-01 0.241D-01 0.159D+00
 Coeff-Com:  0.840D+00
 Coeff:     -0.802D-05-0.199D-06-0.427D-05 0.327D-04 0.229D-03 0.721D-03
 Coeff:      0.103D-02-0.281D-02-0.438D-02-0.180D-01 0.241D-01 0.159D+00
 Coeff:      0.840D+00
 Gap=     0.162 Goal=   None    Shift=    0.000
 Gap=     0.162 Goal=   None    Shift=    0.000
 RMSDP=2.51D-07 MaxDP=8.40D-06 DE=-1.71D-09 OVMax= 2.08D-06

 Cycle  14  Pass 1  IDiag  1:
 RMSU=  1.06D-07    CP:  6.41D-01  1.03D+00  1.07D+00  7.94D-01  7.05D-01
                    CP:  8.58D-01  5.53D-01  1.22D+00  7.91D-01  7.90D-01
                    CP:  9.84D-01  8.94D-01  9.90D-01
 E= -380.209257555941     Delta-E=       -0.000000000086 Rises=F Damp=F
 DIIS: error= 1.14D-07 at cycle  14 NSaved=  14.
 NSaved=14 IEnMin=14 EnMin= -380.209257555941     IErMin=14 ErrMin= 1.14D-07
 ErrMax= 1.14D-07  0.00D+00 EMaxC= 1.00D-01 BMatC= 2.32D-11 BMatP= 1.50D-10
 IDIUse=1 WtCom= 1.00D+00 WtEn= 0.00D+00
 Coeff-Com: -0.240D-05 0.419D-06-0.337D-05-0.302D-05 0.426D-04 0.142D-03
 Coeff-Com:  0.277D-03-0.492D-03-0.121D-02-0.693D-02 0.778D-03 0.295D-01
 Coeff-Com:  0.386D+00 0.592D+00
 Coeff:     -0.240D-05 0.419D-06-0.337D-05-0.302D-05 0.426D-04 0.142D-03
 Coeff:      0.277D-03-0.492D-03-0.121D-02-0.693D-02 0.778D-03 0.295D-01
 Coeff:      0.386D+00 0.592D+00
 Gap=     0.162 Goal=   None    Shift=    0.000
 Gap=     0.162 Goal=   None    Shift=    0.000
 RMSDP=5.11D-08 MaxDP=2.59D-06 DE=-8.57D-11 OVMax= 7.26D-07

 Cycle  15  Pass 1  IDiag  1:
 RMSU=  2.61D-08    CP:  6.41D-01  1.03D+00  1.07D+00  7.94D-01  7.05D-01
                    CP:  8.58D-01  5.53D-01  1.22D+00  7.91D-01  7.90D-01
                    CP:  9.85D-01  8.90D-01  1.02D+00  8.34D-01
 E= -380.209257555916     Delta-E=        0.000000000024 Rises=F Damp=F
 DIIS: error= 6.84D-08 at cycle  15 NSaved=  15.
 NSaved=15 IEnMin=14 EnMin= -380.209257555941     IErMin=15 ErrMin= 6.84D-08
 ErrMax= 6.84D-08  0.00D+00 EMaxC= 1.00D-01 BMatC= 5.19D-12 BMatP= 2.32D-11
 IDIUse=1 WtCom= 1.00D+00 WtEn= 0.00D+00
 Coeff-Com:  0.138D-06 0.165D-06-0.755D-06-0.469D-05-0.111D-04-0.356D-04
 Coeff-Com: -0.155D-04 0.197D-03 0.266D-04-0.736D-03-0.502D-02-0.195D-01
 Coeff-Com:  0.355D-01 0.234D+00 0.756D+00
 Coeff:      0.138D-06 0.165D-06-0.755D-06-0.469D-05-0.111D-04-0.356D-04
 Coeff:     -0.155D-04 0.197D-03 0.266D-04-0.736D-03-0.502D-02-0.195D-01
 Coeff:      0.355D-01 0.234D+00 0.756D+00
 Gap=     0.162 Goal=   None    Shift=    0.000
 Gap=     0.162 Goal=   None    Shift=    0.000
 RMSDP=2.45D-08 MaxDP=8.07D-07 DE= 2.43D-11 OVMax= 4.95D-07

 Cycle  16  Pass 1  IDiag  1:
 RMSU=  1.07D-08    CP:  6.41D-01  1.03D+00  1.07D+00  7.94D-01  7.05D-01
                    CP:  8.58D-01  5.53D-01  1.22D+00  7.91D-01  7.90D-01
                    CP:  9.85D-01  8.94D-01  1.03D+00  8.86D-01  8.40D-01
 E= -380.209257555905     Delta-E=        0.000000000012 Rises=F Damp=F
 DIIS: error= 1.47D-08 at cycle  16 NSaved=  16.
 NSaved=16 IEnMin=14 EnMin= -380.209257555941     IErMin=16 ErrMin= 1.47D-08
 ErrMax= 1.47D-08  0.00D+00 EMaxC= 1.00D-01 BMatC= 3.13D-13 BMatP= 5.19D-12
 IDIUse=1 WtCom= 1.00D+00 WtEn= 0.00D+00
 Coeff-Com:  0.116D-06 0.752D-07-0.343D-06-0.200D-05-0.631D-05-0.204D-04
 Coeff-Com: -0.136D-04 0.125D-03 0.521D-04-0.162D-03-0.253D-02-0.112D-01
 Coeff-Com:  0.605D-02 0.917D-01 0.387D+00 0.529D+00
 Coeff:      0.116D-06 0.752D-07-0.343D-06-0.200D-05-0.631D-05-0.204D-04
 Coeff:     -0.136D-04 0.125D-03 0.521D-04-0.162D-03-0.253D-02-0.112D-01
 Coeff:      0.605D-02 0.917D-01 0.387D+00 0.529D+00
 Gap=     0.162 Goal=   None    Shift=    0.000
 Gap=     0.162 Goal=   None    Shift=    0.000
 RMSDP=5.92D-09 MaxDP=2.57D-07 DE= 1.18D-11 OVMax= 1.55D-07

 SCF Done:  E(UB3LYP) =  -380.209257556     A.U. after   16 cycles
            NFock= 16  Conv=0.59D-08     -V/T= 2.0066
 <Sx>= 0.0000 <Sy>= 0.0000 <Sz>= 0.0000 <S**2>=-0.0000 S=-0.0000
 <L.S>= 0.000000000000E+00
 KE= 3.777027313493D+02 PE=-1.645806693205D+03 EE= 4.999946789840D+02
 Annihilation of the first spin contaminant:
 S**2 before annihilation    -0.0000,   after     0.0000
 Leave Link  502 at Sun Aug  9 17:42:05 2020, MaxMem=   524288000 cpu:            1340.6 elap:             191.6
 (Enter /home/ubuntu/g16/l601.exe)
 Copying SCF densities to generalized density rwf, IOpCl= 1 IROHF=0.

 **********************************************************************

            Population analysis using the SCF density.

 **********************************************************************

 Orbital symmetries:
 Alpha Orbitals:
       Occupied  (A) (A) (A) (A) (A) (A) (A) (A) (A) (A) (A) (A)
                 (A) (A) (A) (A) (A) (A) (A) (A) (A) (A) (A) (A)
                 (A) (A) (A) (A) (A) (A) (A)
       Virtual   (A) (A) (A) (A) (A) (A) (A) (A) (A) (A) (A) (A)
                 (A) (A) (A) (A) (A) (A) (A) (A) (A) (A) (A) (A)
                 (A) (A) (A) (A) (A) (A) (A) (A) (A) (A) (A) (A)
                 (A) (A) (A) (A) (A) (A) (A) (A) (A) (A) (A) (A)
                 (A) (A) (A) (A) (A) (A) (A) (A) (A) (A) (A) (A)
                 (A) (A) (A) (A) (A) (A) (A) (A) (A) (A) (A) (A)
                 (A) (A) (A) (A) (A) (A) (A) (A) (A) (A) (A) (A)
                 (A) (A) (A) (A) (A) (A) (A) (A) (A) (A) (A) (A)
                 (A) (A) (A) (A) (A) (A) (A) (A) (A) (A) (A) (A)
                 (A) (A) (A) (A) (A) (A) (A) (A) (A) (A) (A) (A)
                 (A) (A) (A) (A) (A) (A) (A) (A) (A) (A) (A) (A)
                 (A) (A) (A) (A) (A) (A) (A) (A) (A) (A) (A) (A)
                 (A) (A) (A) (A) (A) (A) (A) (A) (A) (A) (A) (A)
                 (A) (A) (A) (A) (A) (A) (A) (A) (A) (A) (A) (A)
                 (A) (A) (A) (A) (A) (A) (A) (A) (A) (A) (A) (A)
                 (A) (A) (A) (A) (A) (A) (A) (A) (A) (A) (A) (A)
                 (A) (A) (A) (A) (A) (A) (A) (A) (A) (A) (A) (A)
                 (A) (A) (A) (A) (A) (A) (A) (A) (A) (A) (A) (A)
                 (A) (A) (A) (A) (A) (A) (A) (A) (A) (A) (A) (A)
                 (A) (A) (A) (A) (A) (A) (A) (A) (A) (A) (A)
 Beta  Orbitals:
       Occupied  (A) (A) (A) (A) (A) (A) (A) (A) (A) (A) (A) (A)
                 (A) (A) (A) (A) (A) (A) (A) (A) (A) (A) (A) (A)
                 (A) (A) (A) (A) (A) (A) (A)
       Virtual   (A) (A) (A) (A) (A) (A) (A) (A) (A) (A) (A) (A)
                 (A) (A) (A) (A) (A) (A) (A) (A) (A) (A) (A) (A)
                 (A) (A) (A) (A) (A) (A) (A) (A) (A) (A) (A) (A)
                 (A) (A) (A) (A) (A) (A) (A) (A) (A) (A) (A) (A)
                 (A) (A) (A) (A) (A) (A) (A) (A) (A) (A) (A) (A)
                 (A) (A) (A) (A) (A) (A) (A) (A) (A) (A) (A) (A)
                 (A) (A) (A) (A) (A) (A) (A) (A) (A) (A) (A) (A)
                 (A) (A) (A) (A) (A) (A) (A) (A) (A) (A) (A) (A)
                 (A) (A) (A) (A) (A) (A) (A) (A) (A) (A) (A) (A)
                 (A) (A) (A) (A) (A) (A) (A) (A) (A) (A) (A) (A)
                 (A) (A) (A) (A) (A) (A) (A) (A) (A) (A) (A) (A)
                 (A) (A) (A) (A) (A) (A) (A) (A) (A) (A) (A) (A)
                 (A) (A) (A) (A) (A) (A) (A) (A) (A) (A) (A) (A)
                 (A) (A) (A) (A) (A) (A) (A) (A) (A) (A) (A) (A)
                 (A) (A) (A) (A) (A) (A) (A) (A) (A) (A) (A) (A)
                 (A) (A) (A) (A) (A) (A) (A) (A) (A) (A) (A) (A)
                 (A) (A) (A) (A) (A) (A) (A) (A) (A) (A) (A) (A)
                 (A) (A) (A) (A) (A) (A) (A) (A) (A) (A) (A) (A)
                 (A) (A) (A) (A) (A) (A) (A) (A) (A) (A) (A) (A)
                 (A) (A) (A) (A) (A) (A) (A) (A) (A) (A) (A)
 The electronic state is 1-A.
     Natural Orbital Coefficients:
                           1         2         3         4         5
     Eigenvalues --     2.00000   2.00000   2.00000   2.00000   2.00000
   1 1   C  1S          0.05523   0.11878  -0.08234   0.12369  -0.43550
   2        2S         -0.00493   0.15991   0.04777   0.01328   0.02575
   3        3S         -0.22366   0.11207   0.32216   0.03932   0.08048
   4        4S         -1.55556  -0.11972   0.01075   0.15825  -0.00386
   5        5PX         0.13192   0.04685  -0.22421  -0.09603   0.04841
   6        5PY        -0.20836  -0.10704  -0.03076   0.04419  -0.10709
   7        5PZ         0.01802  -0.04954   0.05333  -0.10530  -0.01466
   8        6PX        -0.21007  -0.02184  -0.28534   0.10846  -0.18273
   9        6PY        -0.06597   0.11672  -0.10790   0.00542   0.01884
  10        6PZ         0.01353  -0.02768   0.01857  -0.05569  -0.00939
  11        7PX         0.21440   0.14222   0.02494  -0.01103  -0.03927
  12        7PY        -0.17227   0.07122   0.03870   0.02273   0.01008
  13        7PZ         0.00091   0.00131  -0.00161  -0.00372   0.00024
  14        8D 0        0.00153  -0.00566  -0.00148  -0.00095  -0.00037
  15        8D+1       -0.00123   0.00079  -0.00561   0.00527  -0.00233
  16        8D-1        0.00064  -0.00249   0.00081  -0.00196  -0.00336
  17        8D+2       -0.00501   0.00403   0.01255   0.00450   0.00182
  18        8D-2       -0.01625   0.00499  -0.01260   0.00803   0.00710
  19        9D 0       -0.00349   0.00631   0.00446   0.00604  -0.00449
  20        9D+1       -0.00232   0.00139  -0.00039   0.00093   0.00012
  21        9D-1       -0.00076   0.00088  -0.00386  -0.00044  -0.00082
  22        9D+2        0.08157   0.02830   0.03543  -0.03038   0.03031
  23        9D-2        0.06543   0.01508   0.00315   0.00800  -0.00606
  24 2   C  1S          0.04204   0.06662  -0.35950   0.03509   0.00673
  25        2S         -0.10647   0.13990   0.14217   0.01448  -0.01423
  26        3S         -0.10454   0.01780   0.79289   0.04305  -0.10675
  27        4S          1.52113  -0.39126  -0.04460  -0.20622  -0.32310
  28        5PX        -0.04798  -0.02229   0.14183   0.09709  -0.01259
  29        5PY         0.13540  -0.20610   0.12033  -0.05609  -0.17539
  30        5PZ         0.02182  -0.03536   0.10949  -0.11202   0.01629
  31        6PX        -0.16149  -0.15356  -0.49059   0.10454  -0.10885
  32        6PY        -0.00967   0.08686   0.48368  -0.01690   0.10539
  33        6PZ         0.00772  -0.01808   0.06731  -0.06042   0.01459
  34        7PX         0.27440   0.21246   0.08342   0.02076  -0.00507
  35        7PY         0.18016  -0.12333  -0.05029  -0.02384  -0.05973
  36        7PZ         0.00277  -0.00211   0.00895  -0.00546   0.00144
  37        8D 0        0.00132  -0.00495  -0.00389   0.00008   0.00204
  38        8D+1        0.00087  -0.00239  -0.00045  -0.00409  -0.00134
  39        8D-1        0.00037  -0.00084   0.00676  -0.00332   0.00050
  40        8D+2       -0.00433  -0.00212   0.00984   0.00265   0.00703
  41        8D-2       -0.01750   0.00551  -0.00926   0.00865   0.00342
  42        9D 0       -0.00319  -0.00523   0.01032  -0.00270   0.00395
  43        9D+1       -0.00633   0.00422  -0.00237  -0.00105   0.00326
  44        9D-1        0.00074  -0.00306   0.00941  -0.00160   0.00193
  45        9D+2       -0.02988   0.03889  -0.17134   0.01555  -0.06017
  46        9D-2        0.09434  -0.16465  -0.09891  -0.01119  -0.05636
  47 3   C  1S          0.04511  -0.00147  -0.05848  -0.15668  -0.02356
  48        2S          0.02927  -0.05264  -0.09391   0.06834   0.03217
  49        3S         -0.11160  -0.13218  -0.14904   0.08081   0.23096
  50        4S          1.41630   0.24942  -0.01942   0.10868   0.17721
  51        5PX         0.15281  -0.03706  -0.00493   0.08309   0.12612
  52        5PY         0.10977  -0.08108   0.07923  -0.00090  -0.00974
  53        5PZ         0.01060  -0.04982   0.00539  -0.02514  -0.07311
  54        6PX         0.08747   0.01108   0.04432   0.10989  -0.04303
  55        6PY        -0.17687   0.01042  -0.19338   0.04321   0.07903
  56        6PZ         0.00228  -0.02212  -0.00622  -0.01069  -0.03575
  57        7PX        -0.25945   0.00899   0.02533  -0.02738  -0.03110
  58        7PY        -0.02826   0.20286   0.09524   0.02479  -0.04673
  59        7PZ        -0.00119  -0.00026  -0.00234   0.00072  -0.00022
  60        8D 0       -0.00940  -0.00076  -0.00072  -0.00611  -0.00545
  61        8D+1       -0.00077   0.00280  -0.00289   0.00709   0.00380
  62        8D-1       -0.00022   0.00089  -0.00111   0.00550  -0.00354
  63        8D+2        0.00046  -0.01280   0.01026   0.02088   0.00973
  64        8D-2       -0.01172  -0.00572   0.00510   0.00185   0.00048
  65        9D 0       -0.01425  -0.00829  -0.00601  -0.01223   0.00311
  66        9D+1        0.00008   0.00162  -0.00550  -0.00051   0.00091
  67        9D-1       -0.00012   0.00216  -0.00351   0.00365  -0.00156
  68        9D+2       -0.02402  -0.00684   0.03780   0.08211  -0.13757
  69        9D-2        0.09376   0.00371   0.06996  -0.00612  -0.00839
  70 4   C  1S         -0.04037   0.10863   0.12474   0.39274  -0.09283
  71        2S          0.03281  -0.01811  -0.02294  -0.04829  -0.18629
  72        3S          0.36233  -0.38756  -0.34703  -0.06057  -0.37266
  73        4S         -1.09995  -0.06148  -0.06285   0.09811   0.34836
  74        5PX         0.08267   0.07361   0.03191   0.01972  -0.11633
  75        5PY        -0.06196   0.09861  -0.18352   0.06787  -0.02189
  76        5PZ         0.00731  -0.01416   0.14921  -0.06629   0.01992
  77        6PX         0.19895  -0.22218  -0.31414  -0.01450  -0.05668
  78        6PY         0.14616   0.03581   0.48769   0.01842   0.10679
  79        6PZ        -0.00700  -0.00076   0.06948  -0.03614   0.01641
  80        7PX        -0.49653   0.17565   0.04390  -0.13343   0.04144
  81        7PY        -0.03087  -0.38110  -0.09465  -0.09527  -0.03235
  82        7PZ        -0.00217  -0.00182  -0.00301   0.00331  -0.00114
  83        8D 0        0.00422  -0.00179  -0.00053   0.00133   0.00431
  84        8D+1        0.00389  -0.00261   0.00103  -0.00356  -0.00488
  85        8D-1       -0.00025   0.00075  -0.00106   0.00446  -0.00294
  86        8D+2        0.00846  -0.00334   0.01315   0.00270   0.00206
  87        8D-2        0.00051   0.00785  -0.00944   0.00114  -0.00145
  88        9D 0        0.01805  -0.00753  -0.00489   0.00710  -0.00466
  89        9D+1        0.01401  -0.00720  -0.00165  -0.00311  -0.01442
  90        9D-1        0.00245  -0.00631   0.01710  -0.00212  -0.00235
  91        9D+2       -0.06026   0.18805   0.24881  -0.02201  -0.04671
  92        9D-2        0.09671  -0.08323   0.35511  -0.06036   0.03638
  93 5   C  1S         -0.01150  -0.06564   0.00300   0.04228   0.06858
  94        2S          0.09845   0.12119   0.05233  -0.06385  -0.03251
  95        3S          0.16257   0.28628   0.24881  -0.01562  -0.10271
  96        4S         -1.47772  -0.34957  -0.26314   0.13186   0.14980
  97        5PX         0.06860  -0.08747  -0.09005  -0.03040  -0.00570
  98        5PY         0.01481   0.08770  -0.00709  -0.07239   0.02269
  99        5PZ         0.01463  -0.03113   0.03112   0.00827  -0.08783
 100        6PX         0.01577  -0.20712   0.06920   0.06144  -0.16492
 101        6PY        -0.18661  -0.04458  -0.17208   0.06518   0.07014
 102        6PZ         0.01374  -0.01800   0.01262   0.00789  -0.05116
 103        7PX         0.25213  -0.14318   0.00402  -0.04087  -0.01876
 104        7PY         0.17131   0.14200   0.03685   0.01151  -0.00308
 105        7PZ         0.00048  -0.00295   0.00195   0.00140  -0.00527
 106        8D 0        0.00039  -0.00230   0.00006   0.00143   0.00247
 107        8D+1       -0.00102  -0.00011  -0.00468   0.00023   0.00087
 108        8D-1       -0.00062   0.00251  -0.00072   0.00140   0.00376
 109        8D+2       -0.00012   0.00538   0.00337   0.00010   0.00092
 110        8D-2        0.00618   0.01498   0.00003  -0.00303  -0.00801
 111        9D 0        0.00602   0.00131   0.00934   0.00264  -0.00081
 112        9D+1       -0.00296  -0.00059   0.00008   0.00079  -0.00079
 113        9D-1       -0.00054   0.00166  -0.00257   0.00289   0.00065
 114        9D+2       -0.03652   0.01652  -0.04388  -0.01310   0.00376
 115        9D-2       -0.06559  -0.03461  -0.01598  -0.00546   0.05225
 116 6   C  1S          0.03293  -0.08082   0.13777   0.00930   0.10036
 117        2S         -0.13508   0.08829  -0.07823  -0.04524  -0.07071
 118        3S         -0.19380   0.27675  -0.27515   0.12814  -0.22253
 119        4S          1.63125   0.36230   0.25415   0.04416  -0.25148
 120        5PX         0.10596   0.10402   0.18736   0.01892   0.03063
 121        5PY        -0.15988  -0.12346   0.01736  -0.07705   0.13243
 122        5PZ         0.01945  -0.01690   0.08974  -0.01099  -0.04881
 123        6PX         0.06825  -0.29726  -0.02938   0.04436   0.00510
 124        6PY         0.24866  -0.15478   0.31789  -0.04639   0.03031
 125        6PZ         0.00336  -0.00338   0.03507   0.00174  -0.02182
 126        7PX         0.25850  -0.18057   0.00996  -0.06372  -0.04664
 127        7PY        -0.16800  -0.10566  -0.01331  -0.03142   0.05542
 128        7PZ         0.00321   0.00266   0.00011  -0.00049   0.00107
 129        8D 0        0.00105  -0.00206   0.00132   0.00249   0.00481
 130        8D+1        0.00084  -0.00132  -0.00145   0.00179  -0.00516
 131        8D-1       -0.00043   0.00095  -0.00677   0.00329  -0.00047
 132        8D+2        0.00267   0.00739   0.00502   0.00070   0.00606
 133        8D-2        0.00653   0.01033  -0.00444  -0.00232  -0.00641
 134        9D 0       -0.00817   0.00555  -0.00369   0.00117   0.00292
 135        9D+1       -0.00551  -0.00050   0.00471  -0.00108   0.00124
 136        9D-1        0.00104  -0.00322   0.00265  -0.00171  -0.00301
 137        9D+2        0.01513  -0.08962   0.06377  -0.02161  -0.03856
 138        9D-2       -0.12976   0.02381   0.02532  -0.05169   0.00933
 139 7   N  1S          0.00069   0.04926   0.02135   0.05803   0.03886
 140        2S          0.11199  -0.05619   0.01449   0.04161   0.11390
 141        3S          0.15119  -0.13876  -0.00813   0.22255   0.23660
 142        4S         -0.14456  -0.17848  -0.02495   0.19599   0.03594
 143        5PX        -0.14000   0.07634   0.02940  -0.21457  -0.12407
 144        5PY        -0.05400  -0.05680   0.05501  -0.01029   0.00515
 145        5PZ         0.00415   0.02745   0.00624   0.08967   0.04513
 146        6PX         0.01266  -0.03590   0.00916   0.17143  -0.03159
 147        6PY        -0.04276  -0.03072   0.01792  -0.00830   0.00467
 148        6PZ         0.00073   0.01409   0.00040   0.05016   0.02311
 149        7PX         0.12361  -0.06184  -0.04909   0.17174   0.08134
 150        7PY        -0.00538   0.01350  -0.01679   0.00028   0.01106
 151        7PZ        -0.00028  -0.00024  -0.00098   0.00416   0.00061
 152        8D 0       -0.00393  -0.00082   0.00209   0.00439  -0.00196
 153        8D+1        0.00019   0.00472   0.00201   0.00580   0.00772
 154        8D-1       -0.00004   0.00006  -0.00010   0.00032  -0.00020
 155        8D+2        0.00440   0.00034  -0.00234  -0.00581   0.00197
 156        8D-2       -0.00708   0.00168  -0.00049  -0.00049   0.00073
 157        9D 0       -0.00087   0.00742   0.00110  -0.02091   0.01472
 158        9D+1       -0.00112   0.00701  -0.00229   0.00532   0.00983
 159        9D-1        0.00001  -0.00002   0.00034   0.00044  -0.00034
 160        9D+2        0.00905  -0.00903  -0.00323   0.02954  -0.01306
 161        9D-2       -0.00998   0.01141  -0.01221   0.00167   0.00688
 162 8   N  1S          0.02084   0.04131   0.01415   0.37625  -0.06897
 163        2S          0.06121   0.10776   0.00716  -0.22318  -0.08995
 164        3S          0.01760   0.19796  -0.00720  -0.49871  -0.10453
 165        4S         -0.08493   0.16254   0.04913  -0.32692  -0.11549
 166        5PX         0.08315   0.03420  -0.02127   0.02223  -0.01755
 167        5PY        -0.06205  -0.01440   0.02264  -0.00926   0.00851
 168        5PZ         0.00732   0.04730   0.02829   0.08169   0.07972
 169        6PX         0.07346  -0.02520  -0.00259   0.13869   0.00745
 170        6PY        -0.02299  -0.00962   0.01817  -0.00482  -0.00232
 171        6PZ         0.00546   0.02060   0.02017   0.03400   0.03685
 172        7PX         0.01307  -0.02463  -0.00214   0.04388   0.01188
 173        7PY        -0.00003  -0.00640   0.00043  -0.00070  -0.00183
 174        7PZ         0.00101   0.00196   0.00311   0.00030   0.00365
 175        8D 0        0.00142   0.00064  -0.00100   0.00239  -0.00056
 176        8D+1       -0.00051  -0.00300  -0.00127  -0.00751  -0.00504
 177        8D-1        0.00002   0.00001  -0.00001   0.00001  -0.00001
 178        8D+2       -0.00324  -0.00173   0.00205  -0.00307   0.00092
 179        8D-2        0.00450   0.00346  -0.00378   0.00093  -0.00050
 180        9D 0        0.00365  -0.00350  -0.00034   0.01365   0.00128
 181        9D+1       -0.00069   0.00079  -0.00178  -0.00035   0.00058
 182        9D-1       -0.00003   0.00009  -0.00022   0.00014  -0.00004
 183        9D+2       -0.00796   0.00493  -0.00019  -0.02220  -0.00407
 184        9D-2       -0.00111   0.00354  -0.00467   0.00042   0.00248
 185 9   H  1S         -0.14911   0.23974  -0.07001   0.01442   0.11081
 186        2S         -0.37011   0.40731  -0.09476   0.08179   0.15002
 187        3S          0.08042   0.00155  -0.01859  -0.00184  -0.01971
 188        4PX        -0.00575   0.00812   0.00194   0.00265   0.00379
 189        4PY        -0.00621   0.01030   0.00137  -0.00153   0.00367
 190        4PZ         0.00046  -0.00092   0.00384  -0.00391   0.00090
 191        5PX        -0.02767   0.02419  -0.03782   0.00692  -0.00347
 192        5PY        -0.07898   0.08210  -0.01477   0.01905   0.03866
 193        5PZ        -0.00053  -0.00059   0.00315  -0.00168   0.00224
 194 10  H  1S          0.09444   0.10797  -0.01782  -0.09427  -0.02093
 195        2S          0.26799   0.20530   0.01471  -0.11055  -0.05750
 196        3S         -0.07902  -0.00160  -0.02163   0.00130   0.00774
 197        4PX        -0.00240  -0.00542  -0.00155   0.00290   0.00039
 198        4PY        -0.00669  -0.00484   0.00050   0.00536   0.00030
 199        4PZ         0.00046  -0.00101   0.00100   0.00042  -0.00303
 200        5PX        -0.02234  -0.01138   0.00670   0.01460   0.00432
 201        5PY        -0.05708  -0.04480  -0.00251   0.02049   0.00711
 202        5PZ         0.00007   0.00024   0.00019   0.00016  -0.00032
 203 11  H  1S         -0.22993  -0.09467  -0.10246  -0.08696   0.03480
 204        2S         -0.45978  -0.22261  -0.15043  -0.10238   0.04793
 205        3S          0.07355  -0.01256  -0.00003   0.00336  -0.02556
 206        4PX        -0.00598  -0.00032  -0.00033  -0.00275   0.00123
 207        4PY         0.01215  -0.00008   0.00886   0.00455   0.00088
 208        4PZ         0.00032  -0.00047   0.00313  -0.00041  -0.00146
 209        5PX        -0.03348  -0.04042  -0.01754  -0.00341  -0.00442
 210        5PY         0.09177   0.04087   0.03199   0.02047  -0.01804
 211        5PZ        -0.00122   0.00030   0.00097   0.00133   0.00064
 212 12  H  1S          0.21200   0.16206  -0.03028  -0.07255   0.10437
 213        2S          0.46383   0.15009   0.00006  -0.12252   0.12366
 214        3S         -0.06860  -0.00389   0.00920  -0.00034   0.00921
 215        4PX        -0.00336  -0.00588  -0.00374  -0.00036  -0.00392
 216        4PY         0.00704   0.01062  -0.00371  -0.00288   0.00665
 217        4PZ         0.00057  -0.00160   0.00167  -0.00364  -0.00037
 218        5PX        -0.05412  -0.01273   0.01299   0.02151  -0.01248
 219        5PY         0.09366   0.02185   0.00255  -0.02308   0.02410
 220        5PZ        -0.00033  -0.00001  -0.00068  -0.00168   0.00098
 221 13  C  1S          0.04151   0.06087   0.01118   0.36305  -0.22468
 222        2S         -0.07202   0.02231   0.07404  -0.00484   0.08575
 223        3S          0.04242  -0.21397  -0.29176  -0.03658   0.08321
 224        4S         -0.22695   0.26816   0.15617  -0.20972  -0.03778
 225        5PX        -0.01071  -0.08446  -0.04374  -0.03015  -0.04725
 226        5PY        -0.01067   0.04451  -0.10819   0.02254   0.01225
 227        5PZ        -0.05910   0.02674   0.12255  -0.00403   0.08804
 228        6PX         0.07410  -0.19510  -0.21271   0.01246   0.05021
 229        6PY         0.02315  -0.04649   0.10530  -0.03060  -0.00113
 230        6PZ         0.00911   0.00309   0.02939  -0.00492  -0.00159
 231        7PX        -0.02006   0.05377   0.03099  -0.04349   0.00047
 232        7PY         0.00138   0.01980   0.01202   0.00654  -0.00150
 233        7PZ         0.00912   0.00073  -0.00079  -0.00170  -0.00421
 234        8D 0       -0.00169   0.00324   0.00642   0.00267   0.00556
 235        8D+1        0.00140  -0.00080   0.00439  -0.00291  -0.00046
 236        8D-1        0.00024  -0.00152   0.00370  -0.00055  -0.00068
 237        8D+2       -0.00161  -0.00399  -0.00133  -0.00342  -0.00274
 238        8D-2       -0.00160   0.00211  -0.00245   0.00132  -0.00131
 239        9D 0        0.00267  -0.00084  -0.01325  -0.00394  -0.01575
 240        9D+1        0.00586  -0.00157   0.01696  -0.00108  -0.00486
 241        9D-1       -0.00164   0.01408  -0.02429   0.00666   0.00399
 242        9D+2        0.02004  -0.03507  -0.04349   0.00505   0.00831
 243        9D-2        0.01742  -0.00744   0.05046  -0.01185   0.00469
 244 14  H  1S         -0.00513  -0.00203   0.07275  -0.01351   0.01503
 245        2S          0.05601  -0.11465  -0.01626   0.01056  -0.03057
 246        3S         -0.01160   0.01173   0.01294  -0.00973   0.00029
 247        4PX        -0.00092  -0.00119   0.00164  -0.00131  -0.00037
 248        4PY        -0.00189   0.00138   0.00343  -0.00077   0.00345
 249        4PZ        -0.00311   0.00092   0.00685  -0.00089   0.00485
 250        5PX         0.01316  -0.01693   0.01713   0.00084  -0.00912
 251        5PY         0.00246  -0.01320  -0.00460   0.00459   0.00045
 252        5PZ         0.00586  -0.01655  -0.01129   0.00164  -0.00197
 253 15  H  1S         -0.08183   0.05662   0.13737   0.00146   0.12937
 254        2S         -0.01903  -0.00697   0.04137   0.04050   0.08582
 255        3S         -0.02436   0.00922   0.00568  -0.00632   0.01211
 256        4PX        -0.00341  -0.00081   0.00244  -0.00128   0.00333
 257        4PY        -0.00039   0.00110  -0.00329   0.00071   0.00035
 258        4PZ         0.00534  -0.00340  -0.00826   0.00127  -0.00876
 259        5PX         0.00038   0.00023   0.00336   0.00513   0.00502
 260        5PY         0.00137  -0.00409   0.00782  -0.00238  -0.00101
 261        5PZ         0.00242   0.00409  -0.00640  -0.00897  -0.01622
 262 16  H  1S         -0.01318   0.05282  -0.06859   0.01034   0.03668
 263        2S          0.09476   0.00520  -0.10968   0.03850   0.02268
 264        3S         -0.00727   0.01809  -0.00280  -0.01271   0.00560
 265        4PX        -0.00150  -0.00073  -0.00208  -0.00092   0.00024
 266        4PY         0.00181  -0.00320  -0.00165   0.00027  -0.00380
 267        4PZ        -0.00335   0.00297   0.00243   0.00000   0.00523
 268        5PX         0.01583   0.00699  -0.00430   0.00951  -0.00153
 269        5PY        -0.01361  -0.00277   0.00544  -0.00500  -0.00922
 270        5PZ         0.01227  -0.00555  -0.00809   0.00348   0.00335
                           6         7         8         9        10
     Eigenvalues --     2.00000   2.00000   2.00000   2.00000   2.00000
   1 1   C  1S         -0.13238   0.03435  -0.33823   0.46102  -0.09189
   2        2S          0.00944  -0.00156  -0.05937  -0.01242  -0.01417
   3        3S          0.07574  -0.01458  -0.02573  -0.19356   0.01226
   4        4S          0.08289   0.03063  -0.12686  -0.12799   0.05242
   5        5PX        -0.07239   0.10042   0.08148   0.03285   0.03444
   6        5PY         0.04605   0.00678  -0.04789  -0.02098   0.02245
   7        5PZ        -0.11886   0.09909  -0.13780   0.00469  -0.11596
   8        6PX         0.06916  -0.02459  -0.14861  -0.03497   0.10099
   9        6PY         0.01774   0.03620  -0.04982  -0.03302   0.07360
  10        6PZ        -0.05560   0.04758  -0.07115   0.01035  -0.07335
  11        7PX         0.04347  -0.00160   0.03192   0.04047   0.02589
  12        7PY         0.05153  -0.01086   0.02160  -0.01039   0.00702
  13        7PZ        -0.00171   0.00328  -0.00420   0.00570  -0.00639
  14        8D 0       -0.00167  -0.00114   0.00216   0.00011  -0.00072
  15        8D+1        0.00411  -0.00084   0.00225  -0.00091   0.01075
  16        8D-1       -0.00372   0.00345  -0.00381  -0.00130   0.00278
  17        8D+2        0.00083  -0.00103  -0.00611   0.00133   0.00293
  18        8D-2        0.00172   0.00534  -0.00579   0.00173   0.00163
  19        9D 0        0.00087   0.00151  -0.00810   0.00075   0.00125
  20        9D+1       -0.00430   0.00370  -0.00571  -0.00241   0.00514
  21        9D-1        0.00169   0.00288   0.00226   0.00036   0.00083
  22        9D+2       -0.00617   0.00413   0.05745  -0.00029  -0.03739
  23        9D-2        0.00323  -0.02127  -0.01694  -0.02671   0.00169
  24 2   C  1S         -0.10479  -0.11480   0.05530  -0.44359  -0.35991
  25        2S          0.02204  -0.00407  -0.07971  -0.03296   0.02800
  26        3S          0.05619  -0.05155  -0.20913  -0.11544   0.10643
  27        4S         -0.06499  -0.11300   0.21561   0.10765  -0.10109
  28        5PX         0.07455  -0.09243  -0.05582  -0.04210  -0.05083
  29        5PY         0.00074  -0.00660   0.00012  -0.03784   0.02920
  30        5PZ        -0.11068   0.06171  -0.08589   0.00306  -0.16243
  31        6PX        -0.02069  -0.02684  -0.14886   0.06461   0.06026
  32        6PY        -0.03139   0.01007  -0.01089  -0.05747   0.00165
  33        6PZ        -0.06449   0.02964  -0.05572  -0.00191  -0.09239
  34        7PX         0.08093  -0.04705   0.04958   0.06324  -0.01022
  35        7PY        -0.03280  -0.01115   0.01433   0.01205  -0.02701
  36        7PZ        -0.00662   0.00120  -0.00535  -0.00459  -0.00884
  37        8D 0       -0.00111   0.00072   0.00160   0.00061  -0.00144
  38        8D+1       -0.00471   0.00402  -0.00758   0.00134  -0.00533
  39        8D-1       -0.00329   0.00181   0.00079  -0.00183  -0.00209
  40        8D+2       -0.00149  -0.00402  -0.00385  -0.00231  -0.00730
  41        8D-2        0.00499   0.00105  -0.00176  -0.00141  -0.00039
  42        9D 0       -0.00103  -0.00441  -0.00271  -0.00567  -0.00363
  43        9D+1       -0.00481   0.01177  -0.00557  -0.00298   0.00508
  44        9D-1       -0.00247   0.00224  -0.00106  -0.00449   0.00139
  45        9D+2        0.02668   0.00632  -0.01921   0.02133   0.02887
  46        9D-2       -0.03049  -0.01453   0.00210   0.00116  -0.00200
  47 3   C  1S         -0.28286  -0.14692   0.15625  -0.10350   0.07782
  48        2S          0.02602   0.05942  -0.07493  -0.02989   0.00451
  49        3S         -0.05195   0.21097   0.08944   0.12347   0.02476
  50        4S         -0.07846   0.02044  -0.22294   0.04920   0.11592
  51        5PX        -0.03188   0.08700  -0.09818   0.04810   0.06589
  52        5PY         0.01600  -0.06050   0.03084  -0.02604  -0.06709
  53        5PZ        -0.06978   0.06888  -0.07612  -0.03027   0.08688
  54        6PX         0.07244  -0.03548  -0.18681  -0.16027   0.06575
  55        6PY        -0.00601   0.07372   0.00977   0.03020   0.10823
  56        6PZ        -0.02663   0.04266  -0.03680  -0.01581   0.04869
  57        7PX        -0.03832   0.00501   0.01350   0.01459  -0.03458
  58        7PY         0.05607  -0.00624  -0.02530   0.02809   0.03804
  59        7PZ        -0.00324   0.00816  -0.00613  -0.00528   0.00564
  60        8D 0       -0.00042  -0.00433   0.00723   0.00013  -0.00071
  61        8D+1        0.00173  -0.00707  -0.00139   0.00241   0.00165
  62        8D-1        0.00585  -0.00517   0.01045  -0.00298   0.01328
  63        8D+2        0.00336   0.00356  -0.01587   0.00507   0.00145
  64        8D-2       -0.00155   0.00132  -0.00324  -0.00067   0.00291
  65        9D 0       -0.00599   0.00008   0.02009   0.01212  -0.00299
  66        9D+1        0.01012   0.00065   0.00674   0.00196  -0.00633
  67        9D-1        0.00377  -0.00090   0.00594  -0.00065   0.00755
  68        9D+2        0.09561  -0.06920  -0.09365  -0.13486  -0.00870
  69        9D-2        0.01692  -0.04471   0.01538  -0.01429  -0.04523
  70 4   C  1S         -0.04657   0.54064   0.42010  -0.11016  -0.10959
  71        2S         -0.00460   0.04380   0.02422   0.07301   0.09226
  72        3S          0.03830  -0.09939  -0.08034   0.12173   0.18141
  73        4S         -0.03483  -0.00950  -0.17520  -0.07162   0.01543
  74        5PX         0.10382   0.00237   0.00208  -0.06986   0.08499
  75        5PY         0.07712  -0.01826   0.02925   0.04243   0.04006
  76        5PZ        -0.06616   0.04117   0.02287  -0.03971  -0.04047
  77        6PX        -0.02459  -0.15617  -0.02991   0.08859  -0.08003
  78        6PY         0.03854  -0.07586   0.00031   0.01592   0.00637
  79        6PZ        -0.03823   0.02226   0.00970  -0.02080  -0.02169
  80        7PX        -0.13844   0.16051  -0.07468  -0.04387   0.06297
  81        7PY        -0.12630   0.00367  -0.02000  -0.05788  -0.02903
  82        7PZ         0.00780  -0.00989   0.00774   0.00758  -0.00366
  83        8D 0       -0.00068   0.00049   0.00098  -0.00365  -0.00254
  84        8D+1       -0.00170  -0.00658   0.00120   0.00142  -0.00671
  85        8D-1        0.00477  -0.00428   0.00841  -0.00240   0.01065
  86        8D+2        0.00289  -0.00727   0.00209   0.00449  -0.00593
  87        8D-2        0.00279  -0.00424   0.00152   0.00096  -0.00241
  88        9D 0       -0.00069   0.01502   0.00584  -0.00945   0.00396
  89        9D+1        0.00625  -0.02569   0.00528   0.00940  -0.02070
  90        9D-1       -0.00070  -0.01415  -0.00050  -0.00541  -0.00400
  91        9D+2        0.08055   0.02137   0.02042  -0.06181   0.03274
  92        9D-2       -0.05202  -0.07014  -0.03476  -0.04399  -0.04976
  93 5   C  1S         -0.19920  -0.12222  -0.04270   0.18548   0.05908
  94        2S         -0.03163  -0.02144  -0.05558  -0.03986  -0.07755
  95        3S          0.13464  -0.10602   0.00651  -0.16657  -0.20671
  96        4S         -0.01392   0.16445  -0.05788  -0.10078   0.05888
  97        5PX        -0.00936   0.02447   0.06653   0.01346   0.05458
  98        5PY        -0.09320   0.05705  -0.04180   0.02944   0.06100
  99        5PZ         0.00228  -0.00850   0.07765  -0.05681   0.15679
 100        6PX         0.04716  -0.12647  -0.12055  -0.12845  -0.03401
 101        6PY        -0.01402   0.10359   0.05508   0.09703   0.08729
 102        6PZ         0.01307  -0.01846   0.05045  -0.02601   0.07834
 103        7PX        -0.01362  -0.04717   0.04932  -0.01529  -0.04657
 104        7PY         0.00675  -0.00274  -0.01847   0.02547   0.01479
 105        7PZ         0.00391  -0.00698   0.00701  -0.00026   0.00678
 106        8D 0        0.00007  -0.00009   0.00241   0.00171   0.00164
 107        8D+1       -0.00126   0.00391  -0.00721   0.00176  -0.00130
 108        8D-1        0.00313  -0.00291   0.00271   0.00165  -0.00416
 109        8D+2       -0.00256   0.00041  -0.00503   0.00024  -0.00067
 110        8D-2        0.00378  -0.00289   0.00474   0.00456   0.00556
 111        9D 0       -0.00078  -0.00286  -0.00346  -0.00582  -0.00459
 112        9D+1       -0.00466   0.00378  -0.00483  -0.00317   0.00742
 113        9D-1        0.00034   0.00020   0.00072   0.00064   0.00405
 114        9D+2       -0.00732   0.03693   0.03106   0.01986   0.01747
 115        9D-2       -0.01254   0.01477   0.03144   0.01652  -0.00310
 116 6   C  1S         -0.06539  -0.03461  -0.07650   0.16889   0.31622
 117        2S         -0.02823   0.01937  -0.08352  -0.01554   0.03896
 118        3S          0.15531   0.05617  -0.05760  -0.10154   0.05049
 119        4S          0.25641  -0.25796   0.28390   0.16328  -0.14972
 120        5PX         0.01674  -0.04581  -0.05088  -0.03337  -0.11385
 121        5PY        -0.16594   0.05331  -0.07045  -0.05660  -0.06351
 122        5PZ        -0.00257  -0.03492   0.10622  -0.05157   0.08022
 123        6PX        -0.06883  -0.07977  -0.12232  -0.00218  -0.01624
 124        6PY        -0.01015  -0.14493  -0.03021   0.00818  -0.06619
 125        6PZ        -0.00033  -0.00910   0.06058  -0.02903   0.05953
 126        7PX        -0.03173  -0.07674   0.03329  -0.01288  -0.07585
 127        7PY        -0.04270   0.02390  -0.02034  -0.02642   0.00594
 128        7PZ        -0.00189   0.00395   0.00333  -0.00356   0.00302
 129        8D 0        0.00092  -0.00061   0.00217   0.00052  -0.00088
 130        8D+1        0.00161  -0.00177   0.00368  -0.00190   0.00882
 131        8D-1        0.00327  -0.00182  -0.00097   0.00189   0.00187
 132        8D+2       -0.00137  -0.00339  -0.00273  -0.00036  -0.01055
 133        8D-2        0.00172   0.00009   0.00111   0.00688   0.00698
 134        9D 0        0.00396  -0.00118  -0.00268   0.00540   0.00669
 135        9D+1       -0.00453   0.00613  -0.00283  -0.00648   0.00807
 136        9D-1       -0.00011  -0.01032  -0.00146   0.00093  -0.00664
 137        9D+2       -0.01204  -0.04050  -0.03781  -0.02297   0.00318
 138        9D-2       -0.04341   0.01781  -0.02721  -0.04987  -0.03041
 139 7   N  1S         -0.03800  -0.24712  -0.17433  -0.26210   0.42541
 140        2S         -0.06222   0.04307   0.01855   0.15961  -0.01294
 141        3S         -0.11677   0.09957  -0.05738   0.22283  -0.04255
 142        4S          0.08866  -0.00081  -0.06982  -0.01048  -0.02376
 143        5PX        -0.05353  -0.11685   0.26272   0.07668  -0.09394
 144        5PY        -0.04213   0.01853  -0.02491  -0.01067  -0.02495
 145        5PZ        -0.01564  -0.13033  -0.02870   0.03007   0.01115
 146        6PX         0.03574  -0.03221  -0.12355  -0.10386   0.01015
 147        6PY        -0.02986   0.02056  -0.01699  -0.00419  -0.00852
 148        6PZ        -0.00995  -0.06478  -0.02046   0.01425   0.01311
 149        7PX         0.05086   0.01540  -0.14020  -0.04932   0.05758
 150        7PY        -0.00337   0.00977   0.00200   0.00289   0.00328
 151        7PZ        -0.00062  -0.00378  -0.00199   0.00165   0.00339
 152        8D 0        0.00109  -0.00304  -0.00236  -0.00385  -0.00066
 153        8D+1        0.00311  -0.01317   0.00436   0.00378  -0.00721
 154        8D-1        0.00033  -0.00025   0.00060  -0.00016   0.00078
 155        8D+2       -0.00045   0.00395   0.00265   0.00468   0.00107
 156        8D-2       -0.00272   0.00358  -0.00255   0.00084   0.00143
 157        9D 0       -0.01624   0.00219   0.02132   0.02071  -0.00046
 158        9D+1        0.01042  -0.01105   0.00943   0.00466  -0.01119
 159        9D-1        0.00050  -0.00084   0.00091  -0.00039   0.00110
 160        9D+2        0.02060   0.00143  -0.03132  -0.02344  -0.00027
 161        9D-2       -0.00103   0.00718  -0.00012   0.00326   0.00701
 162 8   N  1S         -0.63580  -0.26224   0.11953  -0.12853   0.16715
 163        2S          0.00455   0.02834   0.07732  -0.02942   0.06794
 164        3S          0.02603   0.06284   0.20600   0.00774   0.08834
 165        4S         -0.07222  -0.00041   0.19260   0.02891  -0.02213
 166        5PX         0.10388   0.08656  -0.20126  -0.18936   0.13365
 167        5PY        -0.03773   0.03096  -0.02545   0.00008  -0.00803
 168        5PZ         0.01300  -0.16779   0.02240   0.04181  -0.05967
 169        6PX         0.04217   0.03359  -0.16460  -0.10384   0.05849
 170        6PY        -0.01518   0.00926  -0.01250  -0.00090  -0.00674
 171        6PZ         0.00333  -0.07994   0.01295   0.01864  -0.03410
 172        7PX         0.01081  -0.00186  -0.02269  -0.00079  -0.00133
 173        7PY        -0.00091  -0.00064  -0.00048  -0.00073  -0.00060
 174        7PZ         0.00177  -0.00629   0.00417   0.00141  -0.00744
 175        8D 0        0.00422   0.00250  -0.00822  -0.00789   0.00469
 176        8D+1        0.00036   0.01240   0.00091  -0.00288   0.00132
 177        8D-1        0.00002  -0.00003   0.00003  -0.00001   0.00003
 178        8D+2       -0.00716  -0.00465   0.01384   0.01362  -0.00853
 179        8D-2        0.00348  -0.00189   0.00210   0.00061   0.00181
 180        9D 0       -0.00148  -0.00063  -0.00832  -0.00403   0.00115
 181        9D+1        0.00222   0.00124   0.00150   0.00033  -0.00061
 182        9D-1        0.00013   0.00005   0.00024  -0.00000   0.00035
 183        9D+2        0.00348   0.00044   0.01373   0.00459  -0.00157
 184        9D-2        0.00006   0.00184   0.00082   0.00084   0.00187
 185 9   H  1S         -0.00309   0.04124  -0.01898   0.03616   0.03234
 186        2S          0.03255   0.07198  -0.05394   0.03692   0.06750
 187        3S          0.00330  -0.00710   0.00808   0.01158  -0.00818
 188        4PX         0.00140  -0.00058  -0.00254   0.00080  -0.00010
 189        4PY        -0.00120   0.00244  -0.00220   0.00205   0.00328
 190        4PZ        -0.00389   0.00253  -0.00305   0.00004  -0.00552
 191        5PX         0.00263   0.00964  -0.00427   0.00521   0.01195
 192        5PY         0.00311   0.01632  -0.00935   0.00734   0.01241
 193        5PZ        -0.00253   0.00494  -0.00255  -0.00168  -0.00126
 194 10  H  1S         -0.06758   0.03668  -0.02413   0.00441   0.02890
 195        2S         -0.03838   0.02028  -0.00851   0.02839   0.05827
 196        3S          0.00044   0.01486   0.00246  -0.00005   0.01032
 197        4PX         0.00276  -0.00098   0.00356   0.00085   0.00104
 198        4PY         0.00371  -0.00172   0.00176   0.00139   0.00114
 199        4PZ         0.00026  -0.00051   0.00288  -0.00197   0.00554
 200        5PX         0.00335  -0.00504  -0.00920  -0.00782  -0.00859
 201        5PY         0.00862  -0.00393   0.00522  -0.00851  -0.01475
 202        5PZ         0.00184  -0.00048   0.00290  -0.00069   0.00120
 203 11  H  1S         -0.13306   0.06504  -0.06905  -0.04625   0.01447
 204        2S         -0.20278   0.10592  -0.11757  -0.11616   0.01461
 205        3S          0.00751  -0.02011   0.00804  -0.00383  -0.01670
 206        4PX        -0.00445   0.00085  -0.00433  -0.00212  -0.00263
 207        4PY         0.00511  -0.00327   0.00353   0.00064  -0.00296
 208        4PZ        -0.00015  -0.00088   0.00371  -0.00195   0.00305
 209        5PX        -0.01324   0.00782  -0.00753  -0.00803   0.01134
 210        5PY         0.04612  -0.02594   0.02136   0.02283   0.00135
 211        5PZ         0.00057   0.00306   0.00227  -0.00267   0.00492
 212 12  H  1S         -0.05223   0.03054   0.04932   0.00581  -0.01029
 213        2S         -0.07253   0.03016   0.09366  -0.00617  -0.02718
 214        3S          0.00209  -0.00229   0.00487  -0.01174  -0.00203
 215        4PX         0.00016   0.00074   0.00115   0.00065   0.00084
 216        4PY        -0.00229   0.00261   0.00119  -0.00044   0.00003
 217        4PZ        -0.00408   0.00346  -0.00488   0.00029  -0.00426
 218        5PX         0.01005  -0.01026  -0.02101  -0.00362   0.00595
 219        5PY        -0.01626   0.00458   0.01320  -0.00018  -0.00310
 220        5PZ        -0.00030   0.00247  -0.00086   0.00065  -0.00311
 221 13  C  1S         -0.21377   0.07503  -0.05280  -0.04857  -0.17255
 222        2S         -0.01804  -0.03217   0.08396   0.15324   0.01436
 223        3S         -0.11433  -0.06816  -0.00350   0.13398  -0.08181
 224        4S         -0.11658   0.17557  -0.02703  -0.03752   0.08004
 225        5PX        -0.07285   0.01876  -0.04546   0.02021  -0.03778
 226        5PY         0.01482   0.08221   0.02212   0.03354   0.04974
 227        5PZ        -0.04142   0.17698  -0.01403  -0.07454   0.10353
 228        6PX        -0.08697  -0.08093  -0.00349   0.10544  -0.10406
 229        6PY        -0.02842  -0.02870  -0.01725  -0.02402  -0.02350
 230        6PZ         0.00213   0.00616   0.01151  -0.00266   0.00158
 231        7PX        -0.02393   0.02071   0.00246   0.00668   0.00694
 232        7PY         0.00924  -0.00872   0.00035  -0.00014  -0.00296
 233        7PZ         0.00110  -0.01166   0.00094   0.00517  -0.00610
 234        8D 0        0.00116   0.00617  -0.00026  -0.00494   0.00389
 235        8D+1       -0.00222  -0.00176   0.00130  -0.00052  -0.00417
 236        8D-1       -0.00022  -0.00333  -0.00047  -0.00127  -0.00140
 237        8D+2       -0.00442   0.00353  -0.00147   0.00295   0.00227
 238        8D-2        0.00191  -0.00307   0.00011   0.00025  -0.00043
 239        9D 0        0.00278  -0.01896  -0.00461   0.00357  -0.01307
 240        9D+1        0.00477  -0.00177   0.00465  -0.00125  -0.00298
 241        9D-1        0.00506   0.01858   0.00567   0.00823   0.01113
 242        9D+2       -0.00657  -0.03690   0.00653   0.03038  -0.02914
 243        9D-2       -0.00991  -0.01064  -0.00504  -0.00685  -0.00876
 244 14  H  1S          0.02564  -0.15527   0.04827   0.07413  -0.05440
 245        2S          0.00469  -0.17496   0.02338   0.04264  -0.09821
 246        3S         -0.00428  -0.01451   0.00189   0.00507  -0.00833
 247        4PX        -0.00046  -0.00474   0.00089   0.00365  -0.00215
 248        4PY         0.00242  -0.00659   0.00566   0.00849  -0.00008
[...]
   zx        -0.667960D+00     -0.989815D-01     -0.110132D+00
   zy        -0.541749D-04     -0.802789D-05     -0.893223D-05
   zz         0.519290D+02      0.769508D+01      0.856193D+01

 ----------------------------------------------------------------------

 Dipole orientation:
     6          0.05485353         -2.34972061          0.75074820
     6         -0.10411162         -2.30401488         -1.85971184
     6          0.13162393          0.00077422          2.01338157
     6         -0.19027497         -0.00112968         -3.21288563
     6          0.05664383          2.35031102          0.74891851
     6         -0.10233949          2.30272097         -1.86152341
     7          0.29426486          0.00173625          4.60655716
     7          0.42439711          0.00251062          6.71116601
     1         -0.15968096         -4.08844762         -2.88514720
     1          0.12663113          4.11759012          1.80023009
     1         -0.15649740          4.08639296         -2.88834738
     1          0.12348152         -4.11622883          1.80345071
     6         -0.41622785         -0.00233168         -6.03601566
     1          0.44611403         -1.69170146         -6.87007973
     1         -2.43024545         -0.00720147         -6.57033859
     1          0.43856789          1.69026878         -6.87116856

 Electric dipole moment (dipole orientation):
 (Debye = 10**-18 statcoulomb cm , SI units = C m)
                  (au)            (Debye)         (10**-30 SI)
   Tot        0.464730D+00      0.118123D+01      0.394015D+01
   x          0.000000D+00      0.000000D+00      0.000000D+00
   y          0.000000D+00      0.000000D+00      0.000000D+00
   z          0.464730D+00      0.118123D+01      0.394015D+01

 Dipole polarizability, Alpha (dipole orientation).
 (esu units = cm**3 , SI units = C**2 m**2 J**-1)
 Alpha(0;0):
               (au)            (10**-24 esu)      (10**-40 SI)
   iso        0.100073D+03      0.148292D+02      0.164997D+02
   aniso      0.967765D+02      0.143408D+02      0.159563D+02
   xx         0.524857D+02      0.777759D+01      0.865373D+01
   yx         0.168206D-01      0.249256D-02      0.277334D-02
   yy         0.869543D+02      0.128853D+02      0.143368D+02
   zx         0.781358D+01      0.115785D+01      0.128828D+01
   zy         0.324716D-01      0.481179D-02      0.535384D-02
   zz         0.160778D+03      0.238248D+02      0.265086D+02

 ----------------------------------------------------------------------
 1\1\GINC-192-168-10-17\Freq\UB3LYP\Aug-CC-pVDZ\C7H7N2(1+)\UBUNTU\09-Au
 g-2020\0\\#P Geom=AllCheck Guess=TCheck SCRF=Check GenChk UB3LYP/Aug-C
 C-pVDZ Freq\\4-MePhN2+_UB3LYP-aug-cc-pVDZ\\1,1\C,0.39785,-1.24357,-0.0
 0345\C,-0.98608,-1.21885,-0.00999\C,1.06771,0.,0.00029\C,-1.70313,0.00
 006,-0.0109\C,0.3979,1.24358,-0.00344\C,-0.98604,1.21893,-0.00999\N,2.
 44265,-0.00002,0.0043\N,3.55848,-0.00004,0.00854\H,-1.52984,-2.16292,-
 0.01658\H,0.95582,2.17857,-0.00357\H,-1.52976,2.16302,-0.0166\H,0.9557
 4,-2.17858,-0.00358\C,-3.20169,-0.00001,0.01055\H,-3.61256,-0.89363,-0
 .47408\H,-3.55365,-0.00288,1.05551\H,-3.61271,0.89603,-0.4694\\Version
 =ES64L-G16RevA.03\State=1-A\HF=-380.2092576\S2=0.\S2-1=0.\S2A=0.\RMSD=
 8.771e-09\RMSF=3.653e-05\ZeroPoint=0.1255004\Thermal=0.1326862\Dipole=
 0.4637318,-0.0001904,0.0304427\DipoleDeriv=0.5986738,-0.1283772,-0.006
 3487,0.4297676,0.0118085,0.0025207,0.0079657,-0.0006729,-0.0045649,-0.
 6219203,0.2888778,0.009581,0.4646935,-0.0452862,-0.0075698,-0.0033136,
 -0.0019624,-0.0754033,-1.3448342,0.0000137,0.0074786,0.000193,0.166637
 3,0.,-0.0042731,-0.0000007,0.0437777,1.0851245,0.000292,-0.0475671,0.0
 005665,0.2374217,-0.000014,-0.0946492,-0.0000023,0.0576998,0.5989118,0
 .1284369,-0.0063514,-0.4298793,0.0118255,-0.0025188,0.0079598,0.000681
 8,-0.0045022,-0.6221407,-0.2890158,0.009582,-0.4647562,-0.045389,0.007
 5639,-0.0033186,0.0019495,-0.0753032,2.406627,-0.0000033,-0.0071124,-0
 .0000578,0.1120021,-0.0000002,0.0101148,-0.0000025,0.2525134,-1.062077
 7,-0.0000038,0.0044527,0.0000243,0.0710016,-0.0000001,-0.0060679,0.000
 0005,0.0745811,0.0660852,-0.028184,-0.0016864,-0.0152723,0.0619887,-0.
 0001008,-0.0038104,-0.0017575,0.130529,0.0572935,-0.0147013,-0.0008268
 ,-0.0020171,0.1026073,0.0000841,-0.0019119,0.0008484,0.1481702,0.06605
 86,0.0282041,-0.0016867,0.0152635,0.0619951,0.0001031,-0.0038111,0.001
 7557,0.1305518,0.0572869,0.0147119,-0.0008269,0.0020108,0.1025977,-0.0
 000844,-0.0019154,-0.0008471,0.1481867,-0.3884319,-0.0003284,0.0469079
 ,-0.0026115,0.0627017,0.0000235,0.3523913,0.0000112,0.0216145,0.037351
 8,0.0141908,-0.000148,0.0212635,-0.0099218,-0.0508586,-0.0817701,-0.04
 92019,0.0743571,0.028674,0.0000727,-0.0052802,0.0007982,0.1085919,0.00
 03542,-0.0918831,0.000343,0.0031038,0.0373177,-0.0141861,-0.0001676,-0
 .0199866,-0.010582,0.0504971,-0.0817072,0.0488574,0.0746883\Polar=161.
 334355,0.0052445,86.9542725,-0.6679605,-0.0000542,51.9289506\Quadrupol
 e=10.8619945,-0.5121973,-10.3497972,0.0014981,-0.163655,-0.0000092\PG=
 C01 [X(C7H7N2)]\NImag=1\\0.70570276,-0.05972644,0.70509401,0.00199292,
 0.00062097,0.13231526,-0.36991381,0.03062341,-0.00092826,0.71323417,-0
 .02830378,-0.12449662,-0.00020011,0.05081611,0.69545734,-0.00073788,0.
 00036179,-0.06345874,0.00184435,0.00284747,0.13417354,-0.10658317,-0.0
 8114749,-0.00027885,-0.04610518,-0.01814503,-0.00024363,0.53998699,-0.
 05011301,-0.27958315,-0.00035261,-0.05870125,0.02202768,-0.00080867,-0
 .00000477,0.67040754,0.00000324,-0.00047766,-0.05640843,-0.00053928,-0
 .00002751,0.00914354,0.00195977,0.00000197,0.11659915,-0.03201958,0.02
 980340,-0.00029644,-0.15991887,0.09912145,0.00068652,0.01124995,0.0000
 0524,0.00069740,0.62734535,0.06582487,0.03158890,0.00060922,0.04332485
 ,-0.26357198,-0.00103533,0.00000661,-0.05039027,-0.00000227,0.00002506
 ,0.64510602,0.00043402,-0.00019722,0.00564104,-0.00012611,0.00020086,-
 0.07174030,-0.00153871,0.00000080,-0.01050762,-0.00187410,0.00000146,0
 .19281354,0.03979120,0.01405699,-0.00003043,-0.03500848,0.01583625,-0.
 00038285,-0.10658415,0.05011822,0.00000474,-0.03201087,-0.06583542,0.0
 0043324,0.70569895,-0.01406062,-0.05240455,-0.00015994,0.02662913,-0.0
 1245131,0.00046802,0.08115012,-0.27961039,0.00047531,-0.02981142,0.031
 59130,0.00019781,0.05971048,0.70511725,-0.00003056,0.00015969,0.013277
 11,0.00014583,0.00006704,-0.00496066,-0.00027752,0.00035164,-0.0564085
 0,-0.00029654,-0.00060641,0.00563421,0.00199483,-0.00061907,0.13231585
 ,-0.03501484,-0.02663052,0.00014289,0.05510265,-0.01025272,0.00038801,
 -0.04610468,0.05870903,-0.00053859,-0.15995304,-0.04332192,-0.00013057
 ,-0.36988088,-0.03061136,-0.00093377,0.71319555,-0.01583317,-0.0124471
 6,-0.00006894,0.01024133,-0.04641352,0.00015761,0.01814940,0.02202388,
 0.00003026,-0.09915072,-0.26357926,-0.00020441,0.02831771,-0.12450177,
 0.00019615,-0.05081915,0.69550186,-0.00038253,-0.00046814,-0.00496311,
 0.00038335,-0.00015495,0.00782772,-0.00024465,0.00080735,0.00914072,0.
 00068741,0.00103431,-0.07173764,-0.00074111,-0.00036189,-0.06346231,0.
 00185712,-0.00284601,0.13417338,-0.07972352,-0.03137021,-0.00026183,0.
 02092213,-0.02040244,0.00013778,-0.16197830,-0.00000799,-0.00076708,-0
 .01501753,-0.00000856,0.00142126,-0.07972873,0.03138043,-0.00026180,0.
 02092752,0.02040245,0.00013816,1.61614615,-0.03434072,0.01203309,-0.00
 011877,-0.00671611,-0.00621583,-0.00003315,-0.00000035,-0.10058526,-0.
 00000021,0.00000178,-0.00820427,-0.00000040,0.03434492,0.01202978,0.00
 011818,0.00671475,-0.00621615,0.00003413,-0.00002507,0.13151339,-0.000
 29854,-0.00017746,-0.00831970,0.00002621,-0.00005973,0.00800439,-0.000
 53216,-0.00000057,-0.04460541,-0.00026296,0.00000020,-0.00115913,-0.00
 029832,0.00017785,-0.00831909,0.00002633,0.00005959,0.00800801,0.00584
 304,0.00000018,0.09566537,0.02019992,0.01709791,0.00011055,-0.01072358
 ,0.00746985,-0.00009117,-0.08678328,0.00000714,-0.00028862,0.00977434,
 0.00000434,-0.00067507,0.02020219,-0.01710259,0.00011058,-0.01072545,-
 0.00746958,-0.00009149,-1.33250539,0.00002227,-0.00488079,1.39630448,0
 .00217856,-0.00393554,0.00000415,0.00112702,0.00134272,0.00001579,0.00
 000221,0.02431090,0.,-0.00000064,0.00180529,0.00000007,-0.00217968,-0.
 00393448,-0.00000385,-0.00112629,0.00134276,-0.00001617,0.00002286,-0.
 03782437,0.00000010,-0.00002443,0.01813879,0.00006906,0.00008230,0.005
 13532,-0.00002605,0.00002965,-0.00199100,-0.00025817,0.00000020,0.0127
 3926,0.00008880,0.00000013,0.00074282,0.00006903,-0.00008244,0.0051352
 2,-0.00002594,-0.00002972,-0.00199191,-0.00494014,0.00000008,-0.043985
 90,0.00514279,-0.00000012,0.02376978,-0.01286632,-0.02691011,-0.000023
 08,-0.12760565,-0.12424300,-0.00126405,-0.00379396,0.00124764,-0.00006
 733,0.01070281,0.01474640,0.00009257,-0.00044043,0.00064723,0.00000269
 ,-0.00163948,0.00358169,-0.00002907,-0.00170370,-0.00181476,-0.0000773
 5,0.00010741,0.00037038,0.00002339,0.13482088,0.00336384,0.00481731,0.
 00000563,-0.12461756,-0.27329520,-0.00161898,0.00134267,0.00182415,0.0
 0000791,-0.01433059,-0.01777279,-0.00017247,0.00107275,-0.00020803,-0.
 00000215,0.00326346,-0.00281162,-0.00005666,0.00019929,0.00094733,-0.0
 0004935,0.00023966,-0.00034320,0.00001195,0.13080265,0.28540836,0.0000
 7734,-0.00012844,0.00422668,-0.00104878,-0.00182564,-0.03919147,-0.000
 08852,-0.00004537,0.00665069,-0.00069419,-0.00012911,0.00458083,-0.000
 07128,0.00003549,-0.00130181,0.00010454,0.00015660,0.00624086,0.000024
 34,-0.00003444,0.00219171,-0.00003435,0.00000316,-0.00076392,0.0012397
 8,0.00180641,0.02602806,-0.00178592,0.00314059,0.00003045,-0.00055967,
 0.00035706,-0.00008170,0.00893431,0.01703703,-0.00007358,-0.00536217,0
 .00132571,0.00015047,-0.13333220,-0.12927822,-0.00003612,-0.00845154,-
 0.02657357,-0.00005056,0.00322796,0.00035069,0.00003187,-0.00066337,0.
 00005522,-0.00000711,0.00003941,-0.00008232,0.00000679,0.13668090,0.00
 388892,-0.00176700,0.00004787,-0.00007452,0.00071683,-0.00002814,-0.01
 246398,-0.01650482,-0.00002873,0.00116840,0.00065020,0.00005365,-0.127
 52431,-0.27330464,0.00005889,0.00280256,0.00602888,0.00002992,-0.00333
 281,0.00047945,-0.00001886,0.00165128,-0.00019086,0.00001345,-0.000064
 94,-0.00000807,-0.00000076,0.13426715,0.28352835,0.00001306,0.00005936
 ,0.00412729,-0.00010320,0.00002891,-0.00128386,0.00003338,0.00006251,0
 .00321501,-0.00012983,-0.00005353,0.00806870,-0.00005702,0.00009846,-0
 .03655610,-0.00007709,0.00005373,0.00649682,0.00006380,-0.00002771,-0.
 00394348,-0.00002168,0.00000994,0.00076670,-0.00000665,0.00000836,-0.0
 0068760,0.00011060,-0.00009781,0.02410459,-0.00044037,-0.00064692,0.00
 000403,-0.00163841,-0.00358152,-0.00003107,-0.00379378,-0.00124761,-0.
 00006847,0.01069173,-0.01474570,0.00009605,-0.01286564,0.02691075,-0.0
 0002194,-0.12759409,0.12424415,-0.00126968,-0.00170351,0.00181470,-0.0
 0007718,0.00010735,-0.00037036,0.00002335,0.00066755,-0.00075652,0.000
 03765,0.00098444,0.00015848,0.00004883,0.13481768,-0.00107287,-0.00020
 813,0.00000247,-0.00326358,-0.00281221,0.00005625,-0.00134268,0.001824
 44,-0.00000801,0.01432700,-0.01777205,0.00017366,-0.00336317,0.0048177
 3,-0.00000405,0.12461323,-0.27331030,0.00162100,-0.00019921,0.00094711
 ,0.00004938,-0.00023971,-0.00034310,-0.00001201,0.00075661,-0.00079468
 ,0.00000045,0.00003998,0.00071836,-0.00004252,-0.13079910,0.28542148,-
 0.00007142,-0.00003546,-0.00130199,0.00010496,-0.00015635,0.00624019,-
 0.00008833,0.00004519,0.00665055,-0.00069334,0.00012761,0.00458123,0.0
 0007777,0.00012868,0.00422531,-0.00105470,0.00182925,-0.03919176,0.000
 02421,0.00003422,0.00219194,-0.00003426,-0.00000304,-0.00076407,0.0000
 3748,-0.00000024,-0.00032681,0.00002748,-0.00001208,-0.00462019,0.0012
 4264,-0.00181126,0.02603113,-0.13332223,0.12927291,-0.00003598,-0.0084
 5060,0.02657229,-0.00005060,0.00893397,-0.01703797,-0.00007362,-0.0053
 6170,-0.00132725,0.00015057,-0.00178641,-0.00314060,0.00003050,-0.0005
 5978,-0.00035668,-0.00008173,0.00322828,-0.00035056,0.00003185,-0.0006
 6348,-0.00005523,-0.00000711,0.00098404,-0.00003962,0.00002758,0.00056
 267,-0.00064719,0.00000085,0.00003939,0.00008233,0.00000681,0.13667049
 ,0.12751821,-0.27331143,-0.00005860,-0.00280174,0.00602828,-0.00003068
 ,0.01246230,-0.01650420,0.00002859,-0.00116818,0.00065009,-0.00005337,
 -0.00388867,-0.00176685,-0.00004788,0.00007465,0.00071668,0.00002820,0
 .00333303,0.00047918,0.00001887,-0.00165143,-0.00019073,-0.00001344,-0
 .00015850,0.00071852,0.00001227,0.00064711,-0.00053641,0.00000218,0.00
 006486,-0.00000811,0.00000077,-0.13426036,0.28353509,-0.00005674,-0.00
 009808,-0.03655605,-0.00007797,-0.00005367,0.00649643,0.00003354,-0.00
 006279,0.00321370,-0.00012941,0.00005357,0.00806840,0.00001270,-0.0000
 5938,0.00412611,-0.00010269,-0.00002872,-0.00128288,0.00006374,0.00002
 784,-0.00394199,-0.00002167,-0.00001003,0.00076631,0.00004901,0.000042
 28,-0.00462108,0.00000087,-0.00000219,0.00133036,-0.00000678,-0.000008
 47,-0.00068734,0.00011047,0.00009790,0.02410537,0.00547153,0.00077889,
 -0.00016797,-0.02415485,0.00834857,0.00014764,-0.00597773,-0.00000861,
 -0.00017107,-0.21848864,-0.00000443,0.00010642,0.00544946,-0.00076676,
 -0.00016845,-0.02412265,-0.00833849,0.00014863,0.00659301,-0.00000092,
 0.00033803,-0.00408534,0.00000023,-0.00011148,0.00110372,-0.00156271,0
 .00043038,0.00016752,0.00014383,0.00004540,0.00110860,0.00156600,0.000
 42980,0.00016747,-0.00014395,0.00004522,0.48718704,0.00220169,-0.00485
 828,-0.00144720,0.02964998,0.00309126,-0.00320647,-0.00004007,-0.00048
 412,0.00000001,0.00009596,-0.09040555,-0.00000782,-0.00213688,-0.00485
 823,0.00144876,-0.02968586,0.00304414,0.00320386,0.00004390,0.00028845
 ,0.00000001,-0.00002588,-0.00010072,-0.00000017,0.00109640,0.00098281,
 0.00078973,-0.00130276,0.00016617,-0.00034732,-0.00110604,0.00097778,-
 0.00078746,0.00130620,0.00016575,0.00034711,-0.00015915,0.59234586,-0.
 00439293,-0.00007908,0.00620107,0.00257258,-0.00270990,0.00958352,0.00
 527103,0.00000093,0.00072321,-0.01084188,-0.00000287,-0.07434051,-0.00
 439258,0.00007790,0.00622359,0.00257192,0.00270846,0.00964019,-0.00580
 962,0.00000011,-0.00183996,0.00333879,-0.00000008,0.00046341,0.0004000
 3,-0.00036890,-0.00298676,-0.00024792,-0.00006134,-0.00101365,0.000399
 32,0.00036814,-0.00300021,-0.00024806,0.00006129,-0.00100862,0.0219373
 5,0.00003119,0.51665607,0.00042653,0.00003989,0.00039753,0.00115235,-0
 .00146826,0.00103688,-0.00028610,-0.00000460,-0.00001737,-0.01363636,-
 0.02798696,-0.01525392,-0.00018404,-0.00146689,0.00081567,-0.00520506,
 0.00149864,0.00025844,0.00038245,0.00015803,-0.00011610,-0.00016949,-0
 .00004608,0.00002480,-0.00025610,0.00092255,-0.00038025,-0.00040233,0.
 00004162,-0.00011663,-0.00008671,0.00001345,-0.00022679,0.00004697,0.0
 0000320,-0.00011936,-0.08215213,-0.07704851,-0.04573358,0.09206454,-0.
 00104280,-0.00002018,0.00043985,0.00243286,0.00008682,0.00069144,0.001
 04520,0.00021417,-0.00005838,-0.00085045,0.00083946,0.00277128,-0.0004
 6749,0.00006823,-0.00021934,0.00056154,0.00082106,-0.00111111,-0.00114
 241,0.00012110,-0.00019234,0.00067530,-0.00003051,0.00006623,0.0000115
 2,0.00027813,-0.00044365,-0.00001576,0.00001664,0.00011541,0.00019504,
 0.00035844,-0.00004402,-0.00004971,0.00000385,0.00001488,-0.08024588,-
 0.23051706,-0.10028644,0.08754540,0.24473564,0.00045950,0.00010552,-0.
 00010584,-0.00046113,0.00017156,0.00042260,-0.00093264,0.00033248,0.00
 000717,0.00476114,0.00337293,-0.00088809,0.00146041,-0.00009458,0.0001
 7703,-0.00021387,-0.00040821,0.00067514,0.00107831,0.00007331,0.000043
 75,-0.00061741,-0.00001655,-0.00001727,-0.00042603,0.00023343,0.000151
 30,0.00009123,0.00002747,-0.00011610,-0.00002485,-0.00014125,0.0000035
 7,0.00000239,-0.00001558,0.00000159,-0.04924050,-0.09998220,-0.0953227
 7,0.04841099,0.10921864,0.10131026,0.00026015,0.00014498,-0.00146351,-
 0.00111089,-0.00062573,-0.00161311,-0.00083101,-0.00000123,-0.00004282
 ,-0.01437343,-0.00009026,0.03182726,0.00025537,-0.00014899,-0.00146575
 ,-0.00112927,0.00063087,-0.00161202,0.00055097,0.00000025,0.00036066,-
 0.00020673,-0.00000009,-0.00008966,-0.00003324,0.00019579,0.00059372,-
 0.00008725,-0.00001130,0.00031434,-0.00003465,-0.00019353,0.00059411,-
 0.00008574,0.00001139,0.00031446,-0.06605206,-0.00019937,0.08049674,0.
 00384846,0.00055499,-0.01115428,0.07518088,-0.00093648,-0.00057065,0.0
 0045642,0.00189134,-0.00031050,0.00105026,0.00001406,0.00081727,0.0000
 0008,-0.00003322,-0.00140232,-0.00000603,0.00091277,-0.00056818,-0.000
 45912,-0.00187091,-0.00029847,-0.00105114,-0.00001614,0.00008582,0.000
 00137,0.00000955,-0.00001642,-0.00000039,0.00012559,-0.00010068,-0.000
 23814,-0.00001741,0.00000315,0.00014440,-0.00012532,-0.00009840,0.0002
 4249,0.00001651,0.00000336,-0.00014492,-0.00017514,-0.03824870,0.00066
 691,0.00862411,0.00020561,-0.02467737,0.00023146,0.04041590,0.00146217
 ,0.00017690,0.00000630,-0.00155001,0.00143087,0.00003587,-0.00188038,-
 0.00000109,-0.00016052,0.00354605,-0.00000625,0.00115974,0.00145929,-0
 .00017768,0.00000147,-0.00155079,-0.00143121,0.00001837,0.00216592,-0.
 00000055,-0.00003406,-0.00132762,0.00000016,0.00001244,0.00007427,0.00
 001093,-0.00019049,0.00004463,0.00000302,0.00010987,0.00007192,-0.0000
 1314,-0.00018728,0.00004503,-0.00000304,0.00010862,0.07505690,0.000664
 80,-0.27564244,0.00416537,0.00096210,-0.01299954,-0.08589948,-0.000720
 02,0.30062206,-0.00018234,0.00147269,0.00080799,-0.00522133,-0.0014991
 0,0.00025488,-0.00028389,0.00000273,-0.00001731,-0.01362200,0.02806267
 ,-0.01511338,0.00042467,-0.00004069,0.00039234,0.00115504,0.00147514,0
 .00102973,0.00038219,-0.00015891,-0.00011459,-0.00016957,0.00004632,0.
 00002443,-0.00008693,-0.00001334,-0.00022474,0.00004723,-0.00000317,-0
 .00011816,-0.00025956,-0.00092475,-0.00037640,-0.00040334,-0.00004193,
 -0.00011539,-0.08221495,0.07731040,-0.04532120,0.00445701,-0.00920734,
 0.00680674,0.00384845,-0.00865077,0.00411674,0.09212932,0.00045380,0.0
 0006938,0.00021959,-0.00056128,0.00081622,0.00111279,-0.00102820,0.000
 21217,0.00005862,0.00079692,0.00086724,-0.00275786,0.00102552,-0.00001
 586,-0.00043848,-0.00242048,0.00009900,-0.00069271,0.00112287,0.000121
 18,0.00019076,-0.00066368,-0.00003053,-0.00006569,-0.00019479,0.000357
 65,0.00004144,0.00004952,0.00000377,-0.00001435,-0.00000889,0.00028163
 ,0.00044168,0.00001492,0.00001692,-0.00011530,0.08056853,-0.23158956,0
 .09959368,0.00917443,-0.01718139,0.01180040,-0.00049923,0.00008321,-0.
 00089581,-0.08782995,0.24588897,0.00145928,0.00009501,0.00018378,-0.00
 021649,0.00041151,0.00069822,-0.00093414,-0.00033196,0.00000747,0.0047
 5138,-0.00336367,-0.00091724,0.00046159,-0.00010455,-0.00010746,-0.000
 46279,-0.00017443,0.00040837,0.00107990,-0.00007282,0.00004353,-0.0006
 1859,0.00001648,-0.00001716,-0.00002565,0.00014186,-0.00000018,0.00000
 258,0.00001563,0.00000164,-0.00042381,-0.00023064,0.00015573,0.0000910
 3,-0.00002746,-0.00011892,-0.04882630,0.09929315,-0.09433615,0.0068543
 3,-0.01192455,0.00665719,-0.01116065,0.02473521,-0.01286040,0.04796834
 ,-0.10847875,0.10020159\\0.00001554,0.00001974,-0.00001770,0.00002075,
 0.00004763,0.00003150,-0.00014666,0.00000018,0.00000821,-0.00000560,-0
 .00000531,-0.00008516,0.00000779,-0.00002153,-0.00001693,0.00003159,-0
 .00004078,0.00003273,0.00014460,-0.00000004,0.00002876,-0.00003850,0.0
 0000008,-0.00001392,-0.00001968,-0.00000911,0.00000408,-0.00000405,0.0
 0000058,-0.00000082,-0.00002075,0.00001021,0.00000378,-0.00000257,-0.0
 0000168,-0.00000060,0.00002270,-0.00000408,0.00000849,0.00000178,0.000
 01313,0.00001455,-0.00000818,0.00000205,-0.00001092,0.00000125,-0.0000
 1106,0.00001393\\\@


 THE PROGRESS OF RIVERS TO THE SEA IS NOT AS RAPID
 AS THAT OF MAN TO ERROR.
                                              -- VOLTAIRE
 Job cpu time:       0 days  2 hours 15 minutes 55.9 seconds.
 Elapsed time:       0 days  0 hours 19 minutes 25.3 seconds.
 File lengths (MBytes):  RWF=    211 Int=      0 D2E=      0 Chk=      9 Scr=      1
 Normal termination of Gaussian 16 at Sun Aug  9 18:02:01 2020.
