 Entering Gaussian System, Link 0=/home/ubuntu/g16/g16
 Input=4-MeCOPhN2+_UB3LYP-aug-cc-pVDZ-Opt.gjf
 Output=4-MeCOPhN2+_UB3LYP-aug-cc-pVDZ-Opt.log
 Initial command:
 /home/ubuntu/g16/l1.exe "/home/ubuntu/g16/Gau-5266.inp" -scrdir="/home/ubuntu/g16/"
 Entering Link 1 = /home/ubuntu/g16/l1.exe PID=      5268.
  
 Copyright (c) 1988,1990,1992,1993,1995,1998,2003,2009,2016,
            Gaussian, Inc.  All Rights Reserved.
  
 This is part of the Gaussian(R) 16 program.  It is based on
 the Gaussian(R) 09 system (copyright 2009, Gaussian, Inc.),
 the Gaussian(R) 03 system (copyright 2003, Gaussian, Inc.),
 the Gaussian(R) 98 system (copyright 1998, Gaussian, Inc.),
 the Gaussian(R) 94 system (copyright 1995, Gaussian, Inc.),
 the Gaussian 92(TM) system (copyright 1992, Gaussian, Inc.),
 the Gaussian 90(TM) system (copyright 1990, Gaussian, Inc.),
 the Gaussian 88(TM) system (copyright 1988, Gaussian, Inc.),
 the Gaussian 86(TM) system (copyright 1986, Carnegie Mellon
 University), and the Gaussian 82(TM) system (copyright 1983,
 Carnegie Mellon University). Gaussian is a federally registered
 trademark of Gaussian, Inc.
  
 This software contains proprietary and confidential information,
 including trade secrets, belonging to Gaussian, Inc.
  
 This software is provided under written license and may be
 used, copied, transmitted, or stored only in accord with that
 written license.
  
 The following legend is applicable only to US Government
 contracts under FAR:
  
                    RESTRICTED RIGHTS LEGEND
  
 Use, reproduction and disclosure by the US Government is
 subject to restrictions as set forth in subparagraphs (a)
 and (c) of the Commercial Computer Software - Restricted
 Rights clause in FAR 52.227-19.
  
 Gaussian, Inc.
 340 Quinnipiac St., Bldg. 40, Wallingford CT 06492
  
  
 ---------------------------------------------------------------
 Warning -- This program may not be used in any manner that
 competes with the business of Gaussian, Inc. or will provide
 assistance to any competitor of Gaussian, Inc.  The licensee
 of this program is prohibited from giving any competitor of
 Gaussian, Inc. access to this program.  By using this program,
 the user acknowledges that Gaussian, Inc. is engaged in the
 business of creating and licensing software in the field of
 computational chemistry and represents and warrants to the
 licensee that it is not a competitor of Gaussian, Inc. and that
 it will not use this program in any manner prohibited above.
 ---------------------------------------------------------------
  

 Cite this work as:
 Gaussian 16, Revision A.03,
 M. J. Frisch, G. W. Trucks, H. B. Schlegel, G. E. Scuseria, 
 M. A. Robb, J. R. Cheeseman, G. Scalmani, V. Barone, 
 G. A. Petersson, H. Nakatsuji, X. Li, M. Caricato, A. V. Marenich, 
 J. Bloino, B. G. Janesko, R. Gomperts, B. Mennucci, H. P. Hratchian, 
 J. V. Ortiz, A. F. Izmaylov, J. L. Sonnenberg, D. Williams-Young, 
 F. Ding, F. Lipparini, F. Egidi, J. Goings, B. Peng, A. Petrone, 
 T. Henderson, D. Ranasinghe, V. G. Zakrzewski, J. Gao, N. Rega, 
 G. Zheng, W. Liang, M. Hada, M. Ehara, K. Toyota, R. Fukuda, 
 J. Hasegawa, M. Ishida, T. Nakajima, Y. Honda, O. Kitao, H. Nakai, 
 T. Vreven, K. Throssell, J. A. Montgomery, Jr., J. E. Peralta, 
 F. Ogliaro, M. J. Bearpark, J. J. Heyd, E. N. Brothers, K. N. Kudin, 
 V. N. Staroverov, T. A. Keith, R. Kobayashi, J. Normand, 
 K. Raghavachari, A. P. Rendell, J. C. Burant, S. S. Iyengar, 
 J. Tomasi, M. Cossi, J. M. Millam, M. Klene, C. Adamo, R. Cammi, 
 J. W. Ochterski, R. L. Martin, K. Morokuma, O. Farkas, 
 J. B. Foresman, and D. J. Fox, Gaussian, Inc., Wallingford CT, 2016.
 
 ******************************************
 Gaussian 16:  ES64L-G16RevA.03 25-Dec-2016
                 9-Aug-2020 
 ******************************************
 %chk=4-MeCOPhN2+_UB3LYP-aug-cc-pVDZ-Opt.chk
 %mem=500MW
 %nproc=7
 Will use up to    7 processors via shared memory.
 ----------------------------------------------------------------------
 #p opt=(maxcycles=777) freq ub3lyp/aug-cc-pVDZ pop=(Bonding,AllOrbital
 s,mk,no,nboread)
 ----------------------------------------------------------------------
 1/6=777,18=20,19=15,26=3,38=1/1,3;
 2/9=110,12=2,17=6,18=5,40=1/2;
 3/5=16,7=10,11=2,25=1,30=1,71=1,74=-5,116=2/1,2,3;
 4//1;
 5/5=2,38=5/2;
 6/7=2,8=2,9=2,10=2,15=8,20=1,22=-1,27=20,28=1,31=1,40=2,96=-1/1,2,7;
 7//1,2,3,16;
 1/6=777,18=20,19=15,26=3/3(2);
 2/9=110/2;
 99//99;
 2/9=110/2;
 3/5=16,7=10,11=2,25=1,30=1,71=1,74=-5,116=2/1,2,3;
 4/5=5,16=3,69=1/1;
 5/5=2,38=5/2;
 7//1,2,3,16;
 1/6=777,18=20,19=15,26=3/3(-5);
 2/9=110/2;
 6/7=2,8=2,9=2,10=2,15=8,19=2,20=1,22=-1,27=20,28=1,31=1,40=2,96=-1/1,2,7;
 99/9=1/99;
 Leave Link    1 at Sun Aug  9 03:31:33 2020, MaxMem=   524288000 cpu:               0.3 elap:               0.0
 (Enter /home/ubuntu/g16/l101.exe)
 ------------------------------
 4-MeCOPhN2+_UB3LYP-aug-cc-pVDZ
 ------------------------------
 Symbolic Z-matrix:
 Charge =  1 Multiplicity = 1
 C                     1.09298  -1.24849  -0.00002 
 C                    -0.29524  -1.18945   0. 
 C                     1.78551  -0.02135  -0.00002 
 C                    -0.96219   0.05056   0.00003 
 C                     1.15666   1.24296   0. 
 C                    -0.22853   1.25417   0.00003 
 N                     3.16767  -0.05835  -0.00004 
 N                     4.28142  -0.08216  -0.00006 
 H                    -0.8568   -2.12132   0. 
 H                     1.74207   2.16107   0. 
 H                    -0.77771   2.19479   0.00004 
 H                     1.62949  -2.19581  -0.00004 
 C                    -2.48811   0.16255   0.00005 
 O                    -2.96808   1.27747   0.00002 
 C                    -3.31975  -1.09258   0.00002 
 H                    -3.10317  -1.7048   -0.88842 
 H                    -3.10319  -1.70483   0.88844 
 H                    -4.37757  -0.81549   0.00001 
 
 ITRead=  0  0  0  0  0  0  0  0  0  0  0  0  0  0  0  0  0  0
 MicOpt= -1 -1 -1 -1 -1 -1 -1 -1 -1 -1 -1 -1 -1 -1 -1 -1 -1 -1
 NAtoms=     18 NQM=       18 NQMF=       0 NMMI=      0 NMMIF=      0
                NMic=       0 NMicF=      0.
                    Isotopes and Nuclear Properties:
 (Nuclear quadrupole moments (NQMom) in fm**2, nuclear magnetic moments (NMagM)
  in nuclear magnetons)

  Atom         1           2           3           4           5           6           7           8           9          10
 IAtWgt=          12          12          12          12          12          12          14          14           1           1
 AtmWgt=  12.0000000  12.0000000  12.0000000  12.0000000  12.0000000  12.0000000  14.0030740  14.0030740   1.0078250   1.0078250
 NucSpn=           0           0           0           0           0           0           2           2           1           1
 AtZEff=  -0.0000000  -0.0000000  -0.0000000  -0.0000000  -0.0000000  -0.0000000  -0.0000000  -0.0000000  -0.0000000  -0.0000000
 NQMom=    0.0000000   0.0000000   0.0000000   0.0000000   0.0000000   0.0000000   2.0440000   2.0440000   0.0000000   0.0000000
 NMagM=    0.0000000   0.0000000   0.0000000   0.0000000   0.0000000   0.0000000   0.4037610   0.4037610   2.7928460   2.7928460
 AtZNuc=   6.0000000   6.0000000   6.0000000   6.0000000   6.0000000   6.0000000   7.0000000   7.0000000   1.0000000   1.0000000

  Atom        11          12          13          14          15          16          17          18
 IAtWgt=           1           1          12          16          12           1           1           1
 AtmWgt=   1.0078250   1.0078250  12.0000000  15.9949146  12.0000000   1.0078250   1.0078250   1.0078250
 NucSpn=           1           1           0           0           0           1           1           1
 AtZEff=  -0.0000000  -0.0000000  -0.0000000  -0.0000000  -0.0000000  -0.0000000  -0.0000000  -0.0000000
 NQMom=    0.0000000   0.0000000   0.0000000   0.0000000   0.0000000   0.0000000   0.0000000   0.0000000
 NMagM=    2.7928460   2.7928460   0.0000000   0.0000000   0.0000000   2.7928460   2.7928460   2.7928460
 AtZNuc=   1.0000000   1.0000000   6.0000000   8.0000000   6.0000000   1.0000000   1.0000000   1.0000000
 Leave Link  101 at Sun Aug  9 03:31:33 2020, MaxMem=   524288000 cpu:               1.4 elap:               0.2
 (Enter /home/ubuntu/g16/l103.exe)

 GradGradGradGradGradGradGradGradGradGradGradGradGradGradGradGradGradGrad
 Berny optimization.
 Initialization pass.
                           ----------------------------
                           !    Initial Parameters    !
                           ! (Angstroms and Degrees)  !
 --------------------------                            --------------------------
 ! Name  Definition              Value          Derivative Info.                !
 --------------------------------------------------------------------------------
 ! R1    R(1,2)                  1.3895         estimate D2E/DX2                !
 ! R2    R(1,3)                  1.4091         estimate D2E/DX2                !
 ! R3    R(1,12)                 1.0887         estimate D2E/DX2                !
 ! R4    R(2,4)                  1.408          estimate D2E/DX2                !
 ! R5    R(2,9)                  1.088          estimate D2E/DX2                !
 ! R6    R(3,5)                  1.4121         estimate D2E/DX2                !
 ! R7    R(3,7)                  1.3827         estimate D2E/DX2                !
 ! R8    R(4,6)                  1.4096         estimate D2E/DX2                !
 ! R9    R(4,13)                 1.53           estimate D2E/DX2                !
 ! R10   R(5,6)                  1.3852         estimate D2E/DX2                !
 ! R11   R(5,10)                 1.0889         estimate D2E/DX2                !
 ! R12   R(6,11)                 1.0892         estimate D2E/DX2                !
 ! R13   R(7,8)                  1.114          estimate D2E/DX2                !
 ! R14   R(13,14)                1.2138         estimate D2E/DX2                !
 ! R15   R(13,15)                1.5056         estimate D2E/DX2                !
 ! R16   R(15,16)                1.1005         estimate D2E/DX2                !
 ! R17   R(15,17)                1.1005         estimate D2E/DX2                !
 ! R18   R(15,18)                1.0935         estimate D2E/DX2                !
 ! A1    A(2,1,3)              117.0027         estimate D2E/DX2                !
 ! A2    A(2,1,12)             121.9601         estimate D2E/DX2                !
 ! A3    A(3,1,12)             121.0372         estimate D2E/DX2                !
 ! A4    A(1,2,4)              120.7092         estimate D2E/DX2                !
 ! A5    A(1,2,9)              118.6386         estimate D2E/DX2                !
 ! A6    A(4,2,9)              120.6522         estimate D2E/DX2                !
 ! A7    A(1,3,5)              124.1169         estimate D2E/DX2                !
 ! A8    A(1,3,7)              117.9046         estimate D2E/DX2                !
 ! A9    A(5,3,7)              117.9785         estimate D2E/DX2                !
 ! A10   A(2,4,6)              120.3617         estimate D2E/DX2                !
 ! A11   A(2,4,13)             122.4715         estimate D2E/DX2                !
 ! A12   A(6,4,13)             117.1669         estimate D2E/DX2                !
 ! A13   A(3,5,6)              116.9088         estimate D2E/DX2                !
 ! A14   A(3,5,10)             121.0323         estimate D2E/DX2                !
 ! A15   A(6,5,10)             122.0589         estimate D2E/DX2                !
 ! A16   A(4,6,5)              120.9007         estimate D2E/DX2                !
 ! A17   A(4,6,11)             118.3571         estimate D2E/DX2                !
 ! A18   A(5,6,11)             120.7421         estimate D2E/DX2                !
 ! A19   A(4,13,14)            117.4893         estimate D2E/DX2                !
 ! A20   A(4,13,15)            119.3307         estimate D2E/DX2                !
 ! A21   A(14,13,15)           123.1801         estimate D2E/DX2                !
 ! A22   A(13,15,16)           110.7977         estimate D2E/DX2                !
 ! A23   A(13,15,17)           110.7978         estimate D2E/DX2                !
 ! A24   A(13,15,18)           108.8496         estimate D2E/DX2                !
 ! A25   A(16,15,17)           107.6691         estimate D2E/DX2                !
 ! A26   A(16,15,18)           109.3504         estimate D2E/DX2                !
 ! A27   A(17,15,18)           109.3507         estimate D2E/DX2                !
 ! A28   L(3,7,8,10,-1)        179.6913         estimate D2E/DX2                !
 ! A29   L(3,7,8,10,-2)        180.0002         estimate D2E/DX2                !
 ! D1    D(3,1,2,4)             -0.0005         estimate D2E/DX2                !
 ! D2    D(3,1,2,9)            180.0            estimate D2E/DX2                !
 ! D3    D(12,1,2,4)           179.9998         estimate D2E/DX2                !
 ! D4    D(12,1,2,9)             0.0003         estimate D2E/DX2                !
 ! D5    D(2,1,3,5)              0.0001         estimate D2E/DX2                !
 ! D6    D(2,1,3,7)           -180.0            estimate D2E/DX2                !
 ! D7    D(12,1,3,5)           179.9998         estimate D2E/DX2                !
 ! D8    D(12,1,3,7)            -0.0003         estimate D2E/DX2                !
 ! D9    D(1,2,4,6)              0.0005         estimate D2E/DX2                !
 ! D10   D(1,2,4,13)           179.9999         estimate D2E/DX2                !
 ! D11   D(9,2,4,6)            180.0            estimate D2E/DX2                !
 ! D12   D(9,2,4,13)            -0.0006         estimate D2E/DX2                !
 ! D13   D(1,3,5,6)              0.0004         estimate D2E/DX2                !
 ! D14   D(1,3,5,10)           179.9999         estimate D2E/DX2                !
 ! D15   D(7,3,5,6)           -179.9995         estimate D2E/DX2                !
 ! D16   D(7,3,5,10)             0.0            estimate D2E/DX2                !
 ! D17   D(2,4,6,5)              0.0            estimate D2E/DX2                !
 ! D18   D(2,4,6,11)           179.9992         estimate D2E/DX2                !
 ! D19   D(13,4,6,5)          -179.9994         estimate D2E/DX2                !
 ! D20   D(13,4,6,11)           -0.0002         estimate D2E/DX2                !
 ! D21   D(2,4,13,14)         -179.997          estimate D2E/DX2                !
 ! D22   D(2,4,13,15)           -0.0008         estimate D2E/DX2                !
 ! D23   D(6,4,13,14)            0.0024         estimate D2E/DX2                !
 ! D24   D(6,4,13,15)          179.9987         estimate D2E/DX2                !
 ! D25   D(3,5,6,4)             -0.0005         estimate D2E/DX2                !
 ! D26   D(3,5,6,11)          -179.9996         estimate D2E/DX2                !
 ! D27   D(10,5,6,4)          -180.0            estimate D2E/DX2                !
 ! D28   D(10,5,6,11)            0.0009         estimate D2E/DX2                !
 ! D29   D(4,13,15,16)         -59.7204         estimate D2E/DX2                !
 ! D30   D(4,13,15,17)          59.7233         estimate D2E/DX2                !
 ! D31   D(4,13,15,18)        -179.9983         estimate D2E/DX2                !
 ! D32   D(14,13,15,16)        120.2756         estimate D2E/DX2                !
 ! D33   D(14,13,15,17)       -120.2806         estimate D2E/DX2                !
 ! D34   D(14,13,15,18)         -0.0023         estimate D2E/DX2                !
 --------------------------------------------------------------------------------
 Trust Radius=3.00D-01 FncErr=1.00D-07 GrdErr=1.00D-06 EigMax=2.50D+02 EigMin=1.00D-04
 Number of steps in this run=    108 maximum allowed number of steps=    108.
 GradGradGradGradGradGradGradGradGradGradGradGradGradGradGradGradGradGrad

 Leave Link  103 at Sun Aug  9 03:31:33 2020, MaxMem=   524288000 cpu:               0.0 elap:               0.0
 (Enter /home/ubuntu/g16/l202.exe)
                          Input orientation:                          
 ---------------------------------------------------------------------
 Center     Atomic      Atomic             Coordinates (Angstroms)
 Number     Number       Type             X           Y           Z
 ---------------------------------------------------------------------
      1          6           0        1.092980   -1.248490   -0.000020
      2          6           0       -0.295240   -1.189450    0.000000
      3          6           0        1.785510   -0.021350   -0.000020
      4          6           0       -0.962190    0.050560    0.000030
      5          6           0        1.156660    1.242960    0.000000
      6          6           0       -0.228530    1.254170    0.000030
      7          7           0        3.167670   -0.058350   -0.000040
      8          7           0        4.281420   -0.082160   -0.000060
      9          1           0       -0.856800   -2.121320    0.000000
     10          1           0        1.742070    2.161070    0.000000
     11          1           0       -0.777710    2.194790    0.000040
     12          1           0        1.629490   -2.195810   -0.000040
     13          6           0       -2.488110    0.162550    0.000050
     14          8           0       -2.968080    1.277470    0.000020
     15          6           0       -3.319750   -1.092580    0.000020
     16          1           0       -3.103170   -1.704800   -0.888420
     17          1           0       -3.103190   -1.704830    0.888440
     18          1           0       -4.377570   -0.815490    0.000010
 ---------------------------------------------------------------------
                    Distance matrix (angstroms):
                    1          2          3          4          5
     1  C    0.000000
     2  C    1.389475   0.000000
     3  C    1.409067   2.386206   0.000000
     4  C    2.431307   1.407994   2.748641   0.000000
     5  C    2.492264   2.832778   1.412067   2.431325   0.000000
     6  C    2.830141   2.444530   2.383969   1.409586   1.385235
     7  N    2.391813   3.642957   1.382655   4.131296   2.395322
     8  N    3.395066   4.708706   2.496651   5.245289   3.394123
     9  H    2.136229   1.087994   3.375156   2.174436   3.920765
    10  H    3.470795   3.921303   2.182852   3.430346   1.088867
    11  H    3.918630   3.418458   3.388418   2.152151   2.155868
    12  H    1.088696   2.171945   2.180050   3.429721   3.471125
    13  C    3.849057   2.576157   4.277575   1.530024   3.801530
    14  O    4.782539   3.637275   4.927834   2.351362   4.124884
    15  C    4.415483   3.026061   5.216437   2.620087   5.049059
    16  H    4.313369   2.989874   5.246184   2.907650   5.255923
    17  H    4.313404   2.989904   5.246223   2.907670   5.255960
    18  H    5.487659   4.099422   6.214034   3.523473   5.904652
                    6          7          8          9         10
     6  C    0.000000
     7  N    3.641000   0.000000
     8  N    4.703767   1.114004   0.000000
     9  H    3.433461   4.522411   5.528063   0.000000
    10  H    2.169270   2.637833   3.388271   5.009290   0.000000
    11  H    1.089204   4.543420   5.547909   4.316835   2.520006
    12  H    3.918495   2.633388   3.391202   2.487406   4.358334
    13  C    2.509449   5.660092   6.773952   2.806641   4.678515
    14  O    2.739649   6.279478   7.375896   4.001159   4.792313
    15  C    3.881092   6.569342   7.668033   2.669163   6.017330
    16  H    4.220000   6.543963   7.612773   2.451317   6.261836
    17  H    4.220026   6.544003   7.612815   2.451338   6.261873
    18  H    4.636596   7.583133   8.689987   3.755132   6.805138
                   11         12         13         14         15
    11  H    0.000000
    12  H    5.007193   0.000000
    13  C    2.656213   4.745155   0.000000
    14  O    2.374699   5.762059   1.213844   0.000000
    15  C    4.155571   5.070709   1.505648   2.395998   0.000000
    16  H    4.626438   4.840287   2.157469   3.114725   1.100475
    17  H    4.626462   4.840322   2.157468   3.114748   1.100472
    18  H    4.692630   6.163607   2.127586   2.523320   1.093509
                   16         17         18
    16  H    0.000000
    17  H    1.776860   0.000000
    18  H    1.790049   1.790050   0.000000
 Stoichiometry    C8H7N2O(1+)
 Framework group  C1[X(C8H7N2O)]
 Deg. of freedom    48
 Full point group                 C1      NOp   1
 Largest Abelian subgroup         C1      NOp   1
 Largest concise Abelian subgroup C1      NOp   1
                         Standard orientation:                         
 ---------------------------------------------------------------------
 Center     Atomic      Atomic             Coordinates (Angstroms)
 Number     Number       Type             X           Y           Z
 ---------------------------------------------------------------------
      1          6           0        1.092979   -1.248490   -0.000020
      2          6           0       -0.295241   -1.189450   -0.000000
      3          6           0        1.785509   -0.021350   -0.000020
      4          6           0       -0.962191    0.050560    0.000030
      5          6           0        1.156659    1.242960   -0.000000
      6          6           0       -0.228531    1.254170    0.000030
      7          7           0        3.167669   -0.058350   -0.000040
      8          7           0        4.281419   -0.082159   -0.000060
      9          1           0       -0.856801   -2.121320   -0.000000
     10          1           0        1.742068    2.161070   -0.000000
     11          1           0       -0.777712    2.194790    0.000040
     12          1           0        1.629489   -2.195810   -0.000040
     13          6           0       -2.488111    0.162549    0.000050
     14          8           0       -2.968081    1.277469    0.000020
     15          6           0       -3.319751   -1.092581    0.000020
     16          1           0       -3.103171   -1.704801   -0.888420
     17          1           0       -3.103191   -1.704831    0.888440
     18          1           0       -4.377571   -0.815491    0.000010
 ---------------------------------------------------------------------
 Rotational constants (GHZ):           3.5921825           0.5787499           0.5000129
 Leave Link  202 at Sun Aug  9 03:31:33 2020, MaxMem=   524288000 cpu:               0.0 elap:               0.0
 (Enter /home/ubuntu/g16/l301.exe)
 Standard basis: Aug-CC-pVDZ (5D, 7F)
 Ernie: Thresh=  0.10000D-02 Tol=  0.10000D-05 Strict=F.
 Ernie:  22 primitive shells out of 324 were deleted.
 There are   338 symmetry adapted cartesian basis functions of A   symmetry.
 There are   316 symmetry adapted basis functions of A   symmetry.
   316 basis functions,   550 primitive gaussians,   338 cartesian basis functions
    38 alpha electrons       38 beta electrons
       nuclear repulsion energy       533.0334096619 Hartrees.
 IExCor=  402 DFT=T Ex+Corr=B3LYP ExCW=0 ScaHFX=  0.200000
 ScaDFX=  0.800000  0.720000  1.000000  0.810000 ScalE2=  1.000000  1.000000
 IRadAn=      5 IRanWt=     -1 IRanGd=            0 ICorTp=0 IEmpDi=  4
 NAtoms=   18 NActive=   18 NUniq=   18 SFac= 1.00D+00 NAtFMM=   60 NAOKFM=F Big=F
 Integral buffers will be    131072 words long.
 Raffenetti 2 integral format.
 Two-electron integral symmetry is turned on.
 Leave Link  301 at Sun Aug  9 03:31:33 2020, MaxMem=   524288000 cpu:               0.2 elap:               0.0
 (Enter /home/ubuntu/g16/l302.exe)
 NPDir=0 NMtPBC=     1 NCelOv=     1 NCel=       1 NClECP=     1 NCelD=      1
         NCelK=      1 NCelE2=     1 NClLst=     1 CellRange=     0.0.
 One-electron integrals computed using PRISM.
 One-electron integral symmetry used in STVInt
 NBasis=   316 RedAO= T EigKep=  1.80D-06  NBF=   316
 NBsUse=   316 1.00D-06 EigRej= -1.00D+00 NBFU=   316
 Precomputing XC quadrature grid using
 IXCGrd= 4 IRadAn=           5 IRanWt=          -1 IRanGd=           0 AccXCQ= 0.00D+00.
 Generated NRdTot=       0 NPtTot=           0 NUsed=           0 NTot=          32
 NSgBfM=   337   337   337   337   337 MxSgAt=    18 MxSgA2=    18.
 Leave Link  302 at Sun Aug  9 03:31:34 2020, MaxMem=   524288000 cpu:               3.0 elap:               0.4
 (Enter /home/ubuntu/g16/l303.exe)
 DipDrv:  MaxL=1.
 Leave Link  303 at Sun Aug  9 03:31:34 2020, MaxMem=   524288000 cpu:               0.4 elap:               0.1
 (Enter /home/ubuntu/g16/l401.exe)
 ExpMin= 2.97D-02 ExpMax= 1.17D+04 ExpMxC= 4.01D+02 IAcc=3 IRadAn=         5 AccDes= 0.00D+00
 Harris functional with IExCor=  402 and IRadAn=       5 diagonalized for initial guess.
 HarFok:  IExCor=  402 AccDes= 0.00D+00 IRadAn=         5 IDoV= 1 UseB2=F ITyADJ=14
 ICtDFT=  3500011 ScaDFX=  1.000000  1.000000  1.000000  1.000000
 FoFCou: FMM=F IPFlag=           0 FMFlag=      100000 FMFlg1=           0
         NFxFlg=           0 DoJE=T BraDBF=F KetDBF=T FulRan=T
         wScrn=  0.000000 ICntrl=       500 IOpCl=  0 I1Cent=   200000004 NGrid=           0
         NMat0=    1 NMatS0=      1 NMatT0=    0 NMatD0=    1 NMtDS0=    0 NMtDT0=    0
 Petite list used in FoFCou.
 Harris En= -493.590714904303    
 JPrj=0 DoOrth=F DoCkMO=F.
 Initial guess <Sx>= 0.0000 <Sy>= 0.0000 <Sz>= 0.0000 <S**2>=-0.0000 S=-0.0000
 Leave Link  401 at Sun Aug  9 03:31:37 2020, MaxMem=   524288000 cpu:              25.0 elap:               3.6
 (Enter /home/ubuntu/g16/l502.exe)
 Integral symmetry usage will be decided dynamically.
 UHF open shell SCF:
 Using DIIS extrapolation, IDIIS=  1040.
 NGot=   524288000 LenX=   524053938 LenY=   523939253
 Requested convergence on RMS density matrix=1.00D-08 within 128 cycles.
 Requested convergence on MAX density matrix=1.00D-06.
 Requested convergence on             energy=1.00D-06.
 No special actions if energy rises.
 Fock matrices will be formed incrementally for  20 cycles.

 Cycle   1  Pass 1  IDiag  1:
 FoFJK:  IHMeth= 1 ICntrl=       0 DoSepK=F KAlg= 0 I1Cent=           0 FoldK=F
 IRaf= 970000000 NMat=       1 IRICut=       1 DoRegI=T DoRafI=F ISym2E= 0 IDoP0=0 IntGTp=1.
 FoFCou: FMM=F IPFlag=           0 FMFlag=      100000 FMFlg1=           0
         NFxFlg=           0 DoJE=F BraDBF=F KetDBF=F FulRan=T
         wScrn=  0.000000 ICntrl=         0 IOpCl=  1 I1Cent=           0 NGrid=           0
         NMat0=    1 NMatS0=      1 NMatT0=    0 NMatD0=    1 NMtDS0=    0 NMtDT0=    0
 Symmetry not used in FoFCou.
 E= -493.263949551474    
 DIIS: error= 1.66D-02 at cycle   1 NSaved=   1.
 NSaved= 1 IEnMin= 1 EnMin= -493.263949551474     IErMin= 1 ErrMin= 1.66D-02
 ErrMax= 1.66D-02  0.00D+00 EMaxC= 1.00D-01 BMatC= 1.01D+00 BMatP= 1.01D+00
 IDIUse=3 WtCom= 8.34D-01 WtEn= 1.66D-01
 Coeff-Com:  0.100D+01
 Coeff-En:   0.100D+01
 Coeff:      0.100D+01
 Gap=     0.195 Goal=   None    Shift=    0.000
 Gap=     0.195 Goal=   None    Shift=    0.000
 GapD=    0.195 DampG=1.000 DampE=0.500 DampFc=0.5000 IDamp=-1.
 Damping current iteration by 5.00D-01
 RMSDP=6.56D-02 MaxDP=2.87D+00              OVMax= 8.95D-01

 Cycle   2  Pass 1  IDiag  1:
 RMSU=  1.30D-02    CP:  8.19D-01
 E= -492.011488655122     Delta-E=        1.252460896351 Rises=F Damp=T
 DIIS: error= 3.30D-02 at cycle   2 NSaved=   2.
 NSaved= 2 IEnMin= 1 EnMin= -493.263949551474     IErMin= 1 ErrMin= 1.66D-02
 ErrMax= 3.30D-02  0.00D+00 EMaxC= 1.00D-01 BMatC= 2.12D+00 BMatP= 1.01D+00
 IDIUse=2 WtCom= 0.00D+00 WtEn= 1.00D+00
 Coeff-En:   0.838D+00 0.162D+00
 Coeff:      0.838D+00 0.162D+00
 Gap=     0.122 Goal=   None    Shift=    0.000
 Gap=     0.122 Goal=   None    Shift=    0.000
 RMSDP=3.40D-02 MaxDP=1.70D+00 DE= 1.25D+00 OVMax= 9.88D-01

 Cycle   3  Pass 1  IDiag  1:
 RMSU=  8.01D-03    CP:  6.23D-01  1.45D+00
 E= -493.346753129374     Delta-E=       -1.335264474252 Rises=F Damp=F
 DIIS: error= 1.62D-02 at cycle   3 NSaved=   3.
 NSaved= 3 IEnMin= 3 EnMin= -493.346753129374     IErMin= 3 ErrMin= 1.62D-02
 ErrMax= 1.62D-02  0.00D+00 EMaxC= 1.00D-01 BMatC= 8.36D-01 BMatP= 1.01D+00
 IDIUse=3 WtCom= 8.38D-01 WtEn= 1.62D-01
 Coeff-Com:  0.467D+00 0.753D-01 0.457D+00
 Coeff-En:   0.418D+00 0.000D+00 0.582D+00
 Coeff:      0.459D+00 0.631D-01 0.478D+00
 Gap=     0.117 Goal=   None    Shift=    0.000
 Gap=     0.117 Goal=   None    Shift=    0.000
 RMSDP=9.01D-03 MaxDP=3.12D-01 DE=-1.34D+00 OVMax= 9.43D-02

 Cycle   4  Pass 1  IDiag  1:
 RMSU=  5.51D-03    CP:  6.43D-01  9.66D-01  8.86D-01
 E= -493.522474426531     Delta-E=       -0.175721297157 Rises=F Damp=F
 DIIS: error= 8.81D-03 at cycle   4 NSaved=   4.
 NSaved= 4 IEnMin= 4 EnMin= -493.522474426531     IErMin= 4 ErrMin= 8.81D-03
 ErrMax= 8.81D-03  0.00D+00 EMaxC= 1.00D-01 BMatC= 9.19D-02 BMatP= 8.36D-01
 IDIUse=3 WtCom= 9.12D-01 WtEn= 8.81D-02
 Coeff-Com:  0.207D+00 0.276D-01 0.292D+00 0.474D+00
 Coeff-En:   0.000D+00 0.000D+00 0.103D-01 0.990D+00
 Coeff:      0.188D+00 0.252D-01 0.267D+00 0.520D+00
 Gap=     0.097 Goal=   None    Shift=    0.000
 Gap=     0.097 Goal=   None    Shift=    0.000
 RMSDP=2.04D-03 MaxDP=1.14D-01 DE=-1.76D-01 OVMax= 5.58D-02

 Cycle   5  Pass 1  IDiag  1:
 RMSU=  1.72D-03    CP:  6.45D-01  9.55D-01  8.22D-01  8.30D-01
 E= -493.531585240609     Delta-E=       -0.009110814078 Rises=F Damp=F
 DIIS: error= 6.49D-03 at cycle   5 NSaved=   5.
 NSaved= 5 IEnMin= 5 EnMin= -493.531585240609     IErMin= 5 ErrMin= 6.49D-03
 ErrMax= 6.49D-03  0.00D+00 EMaxC= 1.00D-01 BMatC= 4.32D-02 BMatP= 9.19D-02
 IDIUse=3 WtCom= 9.35D-01 WtEn= 6.49D-02
 Coeff-Com:  0.352D-01 0.821D-02 0.898D-01 0.417D+00 0.450D+00
 Coeff-En:   0.000D+00 0.000D+00 0.000D+00 0.370D+00 0.630D+00
 Coeff:      0.330D-01 0.767D-02 0.840D-01 0.414D+00 0.461D+00
 Gap=     0.102 Goal=   None    Shift=    0.000
 Gap=     0.102 Goal=   None    Shift=    0.000
 RMSDP=9.51D-04 MaxDP=2.53D-02 DE=-9.11D-03 OVMax= 2.66D-02

 Cycle   6  Pass 1  IDiag  1:
 RMSU=  7.08D-04    CP:  6.44D-01  9.79D-01  8.42D-01  7.89D-01  7.20D-01
 E= -493.540323054443     Delta-E=       -0.008737813834 Rises=F Damp=F
 DIIS: error= 9.30D-04 at cycle   6 NSaved=   6.
 NSaved= 6 IEnMin= 6 EnMin= -493.540323054443     IErMin= 6 ErrMin= 9.30D-04
 ErrMax= 9.30D-04  0.00D+00 EMaxC= 1.00D-01 BMatC= 2.11D-03 BMatP= 4.32D-02
 IDIUse=3 WtCom= 9.91D-01 WtEn= 9.30D-03
 Coeff-Com:  0.831D-03 0.440D-03 0.213D-01 0.188D+00 0.282D+00 0.507D+00
 Coeff-En:   0.000D+00 0.000D+00 0.000D+00 0.000D+00 0.139D-01 0.986D+00
 Coeff:      0.823D-03 0.435D-03 0.211D-01 0.187D+00 0.279D+00 0.512D+00
 Gap=     0.101 Goal=   None    Shift=    0.000
 Gap=     0.101 Goal=   None    Shift=    0.000
 RMSDP=3.23D-04 MaxDP=1.91D-02 DE=-8.74D-03 OVMax= 6.25D-03

 Cycle   7  Pass 1  IDiag  1:
 RMSU=  2.26D-04    CP:  6.44D-01  9.76D-01  8.42D-01  8.13D-01  7.02D-01
                    CP:  7.56D-01
 E= -493.540802834091     Delta-E=       -0.000479779648 Rises=F Damp=F
 DIIS: error= 2.45D-04 at cycle   7 NSaved=   7.
 NSaved= 7 IEnMin= 7 EnMin= -493.540802834091     IErMin= 7 ErrMin= 2.45D-04
 ErrMax= 2.45D-04  0.00D+00 EMaxC= 1.00D-01 BMatC= 1.47D-04 BMatP= 2.11D-03
 IDIUse=3 WtCom= 9.98D-01 WtEn= 2.45D-03
 Coeff-Com: -0.212D-02-0.134D-02 0.350D-02 0.639D-01 0.119D+00 0.278D+00
 Coeff-Com:  0.540D+00
 Coeff-En:   0.000D+00 0.000D+00 0.000D+00 0.000D+00 0.000D+00 0.000D+00
 Coeff-En:   0.100D+01
 Coeff:     -0.212D-02-0.134D-02 0.349D-02 0.638D-01 0.118D+00 0.277D+00
 Coeff:      0.541D+00
 Gap=     0.102 Goal=   None    Shift=    0.000
 Gap=     0.102 Goal=   None    Shift=    0.000
 RMSDP=1.13D-04 MaxDP=5.35D-03 DE=-4.80D-04 OVMax= 2.62D-03

 Cycle   8  Pass 1  IDiag  1:
 RMSU=  7.74D-05    CP:  6.44D-01  9.77D-01  8.43D-01  8.16D-01  7.08D-01
                    CP:  7.92D-01  7.99D-01
 E= -493.540830553487     Delta-E=       -0.000027719396 Rises=F Damp=F
 DIIS: error= 1.92D-04 at cycle   8 NSaved=   8.
 NSaved= 8 IEnMin= 8 EnMin= -493.540830553487     IErMin= 8 ErrMin= 1.92D-04
 ErrMax= 1.92D-04  0.00D+00 EMaxC= 1.00D-01 BMatC= 6.34D-05 BMatP= 1.47D-04
 IDIUse=3 WtCom= 9.98D-01 WtEn= 1.92D-03
 Coeff-Com: -0.226D-03-0.158D-02 0.677D-03 0.215D-01 0.501D-01 0.124D+00
 Coeff-Com:  0.389D+00 0.416D+00
 Coeff-En:   0.000D+00 0.000D+00 0.000D+00 0.000D+00 0.000D+00 0.000D+00
 Coeff-En:   0.216D+00 0.784D+00
 Coeff:     -0.225D-03-0.158D-02 0.675D-03 0.214D-01 0.500D-01 0.124D+00
 Coeff:      0.389D+00 0.417D+00
 Gap=     0.102 Goal=   None    Shift=    0.000
 Gap=     0.102 Goal=   None    Shift=    0.000
 RMSDP=5.40D-05 MaxDP=2.54D-03 DE=-2.77D-05 OVMax= 1.07D-03

 Cycle   9  Pass 1  IDiag  1:
 RMSU=  3.75D-05    CP:  6.44D-01  9.78D-01  8.44D-01  8.15D-01  6.97D-01
                    CP:  7.86D-01  8.42D-01  7.68D-01
 E= -493.540841508992     Delta-E=       -0.000010955505 Rises=F Damp=F
 DIIS: error= 6.80D-05 at cycle   9 NSaved=   9.
 NSaved= 9 IEnMin= 9 EnMin= -493.540841508992     IErMin= 9 ErrMin= 6.80D-05
 ErrMax= 6.80D-05  0.00D+00 EMaxC= 1.00D-01 BMatC= 8.43D-06 BMatP= 6.34D-05
 IDIUse=1 WtCom= 1.00D+00 WtEn= 0.00D+00
 Coeff-Com:  0.127D-02-0.133D-02 0.104D-02 0.525D-02 0.127D-01 0.196D-01
 Coeff-Com:  0.957D-01 0.123D+00 0.742D+00
 Coeff:      0.127D-02-0.133D-02 0.104D-02 0.525D-02 0.127D-01 0.196D-01
 Coeff:      0.957D-01 0.123D+00 0.742D+00
 Gap=     0.103 Goal=   None    Shift=    0.000
 Gap=     0.103 Goal=   None    Shift=    0.000
 RMSDP=1.88D-05 MaxDP=6.89D-04 DE=-1.10D-05 OVMax= 3.91D-04

 Cycle  10  Pass 1  IDiag  1:
 RMSU=  1.41D-05    CP:  6.44D-01  9.77D-01  8.44D-01  8.14D-01  7.00D-01
                    CP:  7.88D-01  8.46D-01  7.52D-01  1.07D+00
 E= -493.540843207828     Delta-E=       -0.000001698836 Rises=F Damp=F
 DIIS: error= 4.80D-05 at cycle  10 NSaved=  10.
 NSaved=10 IEnMin=10 EnMin= -493.540843207828     IErMin=10 ErrMin= 4.80D-05
 ErrMax= 4.80D-05  0.00D+00 EMaxC= 1.00D-01 BMatC= 4.14D-06 BMatP= 8.43D-06
 IDIUse=1 WtCom= 1.00D+00 WtEn= 0.00D+00
 Coeff-Com:  0.117D-02-0.798D-03 0.942D-03 0.132D-02-0.131D-02-0.116D-01
 Coeff-Com: -0.414D-01-0.118D+00 0.180D+00 0.990D+00
 Coeff:      0.117D-02-0.798D-03 0.942D-03 0.132D-02-0.131D-02-0.116D-01
 Coeff:     -0.414D-01-0.118D+00 0.180D+00 0.990D+00
 Gap=     0.103 Goal=   None    Shift=    0.000
 Gap=     0.103 Goal=   None    Shift=    0.000
 RMSDP=1.49D-05 MaxDP=7.15D-04 DE=-1.70D-06 OVMax= 4.22D-04

 Cycle  11  Pass 1  IDiag  1:
 RMSU=  9.04D-06    CP:  6.44D-01  9.77D-01  8.44D-01  8.15D-01  6.96D-01
                    CP:  7.89D-01  8.49D-01  7.76D-01  1.21D+00  1.05D+00
 E= -493.540844149434     Delta-E=       -0.000000941606 Rises=F Damp=F
 DIIS: error= 2.22D-05 at cycle  11 NSaved=  11.
 NSaved=11 IEnMin=11 EnMin= -493.540844149434     IErMin=11 ErrMin= 2.22D-05
 ErrMax= 2.22D-05  0.00D+00 EMaxC= 1.00D-01 BMatC= 1.22D-06 BMatP= 4.14D-06
 IDIUse=1 WtCom= 1.00D+00 WtEn= 0.00D+00
 Coeff-Com:  0.441D-03-0.200D-03 0.615D-03 0.253D-02-0.267D-03-0.251D-02
 Coeff-Com: -0.401D-01-0.146D+00-0.291D+00 0.663D+00 0.813D+00
 Coeff:      0.441D-03-0.200D-03 0.615D-03 0.253D-02-0.267D-03-0.251D-02
 Coeff:     -0.401D-01-0.146D+00-0.291D+00 0.663D+00 0.813D+00
 Gap=     0.103 Goal=   None    Shift=    0.000
 Gap=     0.103 Goal=   None    Shift=    0.000
 RMSDP=9.57D-06 MaxDP=4.13D-04 DE=-9.42D-07 OVMax= 2.98D-04

 Cycle  12  Pass 1  IDiag  1:
 RMSU=  7.10D-06    CP:  6.44D-01  9.77D-01  8.44D-01  8.14D-01  6.95D-01
                    CP:  7.88D-01  8.46D-01  7.50D-01  1.31D+00  1.22D+00
                    CP:  8.97D-01
 E= -493.540844490463     Delta-E=       -0.000000341030 Rises=F Damp=F
 DIIS: error= 1.05D-05 at cycle  12 NSaved=  12.
 NSaved=12 IEnMin=12 EnMin= -493.540844490463     IErMin=12 ErrMin= 1.05D-05
 ErrMax= 1.05D-05  0.00D+00 EMaxC= 1.00D-01 BMatC= 1.50D-07 BMatP= 1.22D-06
 IDIUse=1 WtCom= 1.00D+00 WtEn= 0.00D+00
 Coeff-Com:  0.878D-04-0.446D-04 0.275D-03 0.191D-02 0.144D-02 0.377D-02
 Coeff-Com: -0.558D-02-0.587D-01-0.204D+00 0.188D+00 0.468D+00 0.605D+00
 Coeff:      0.878D-04-0.446D-04 0.275D-03 0.191D-02 0.144D-02 0.377D-02
 Coeff:     -0.558D-02-0.587D-01-0.204D+00 0.188D+00 0.468D+00 0.605D+00
 Gap=     0.103 Goal=   None    Shift=    0.000
 Gap=     0.103 Goal=   None    Shift=    0.000
 RMSDP=4.34D-06 MaxDP=2.40D-04 DE=-3.41D-07 OVMax= 1.11D-04

 Cycle  13  Pass 1  IDiag  1:
 RMSU=  2.73D-06    CP:  6.44D-01  9.77D-01  8.44D-01  8.14D-01  6.96D-01
                    CP:  7.87D-01  8.39D-01  7.44D-01  1.27D+00  1.20D+00
                    CP:  9.89D-01  8.13D-01
 E= -493.540844531612     Delta-E=       -0.000000041149 Rises=F Damp=F
 DIIS: error= 2.40D-06 at cycle  13 NSaved=  13.
 NSaved=13 IEnMin=13 EnMin= -493.540844531612     IErMin=13 ErrMin= 2.40D-06
 ErrMax= 2.40D-06  0.00D+00 EMaxC= 1.00D-01 BMatC= 1.28D-08 BMatP= 1.50D-07
 IDIUse=1 WtCom= 1.00D+00 WtEn= 0.00D+00
 Coeff-Com: -0.103D-04-0.576D-05 0.478D-04 0.538D-03 0.708D-03 0.202D-02
 Coeff-Com:  0.291D-02-0.113D-01-0.657D-01 0.146D-01 0.117D+00 0.290D+00
 Coeff-Com:  0.650D+00
 Coeff:     -0.103D-04-0.576D-05 0.478D-04 0.538D-03 0.708D-03 0.202D-02
 Coeff:      0.291D-02-0.113D-01-0.657D-01 0.146D-01 0.117D+00 0.290D+00
 Coeff:      0.650D+00
 Gap=     0.103 Goal=   None    Shift=    0.000
 Gap=     0.103 Goal=   None    Shift=    0.000
 RMSDP=1.32D-06 MaxDP=4.98D-05 DE=-4.11D-08 OVMax= 5.08D-05

 Cycle  14  Pass 1  IDiag  1:
 RMSU=  9.19D-07    CP:  6.44D-01  9.77D-01  8.44D-01  8.14D-01  6.96D-01
                    CP:  7.88D-01  8.39D-01  7.45D-01  1.27D+00  1.21D+00
                    CP:  9.72D-01  8.72D-01  8.25D-01
 E= -493.540844534859     Delta-E=       -0.000000003247 Rises=F Damp=F
 DIIS: error= 1.12D-06 at cycle  14 NSaved=  14.
 NSaved=14 IEnMin=14 EnMin= -493.540844534859     IErMin=14 ErrMin= 1.12D-06
 ErrMax= 1.12D-06  0.00D+00 EMaxC= 1.00D-01 BMatC= 3.12D-09 BMatP= 1.28D-08
 IDIUse=1 WtCom= 1.00D+00 WtEn= 0.00D+00
 Coeff-Com: -0.156D-04-0.937D-06 0.183D-05 0.185D-03 0.466D-03 0.117D-02
 Coeff-Com:  0.367D-02 0.129D-02-0.119D-01-0.131D-01 0.102D-01 0.946D-01
 Coeff-Com:  0.394D+00 0.520D+00
 Coeff:     -0.156D-04-0.937D-06 0.183D-05 0.185D-03 0.466D-03 0.117D-02
 Coeff:      0.367D-02 0.129D-02-0.119D-01-0.131D-01 0.102D-01 0.946D-01
 Coeff:      0.394D+00 0.520D+00
 Gap=     0.103 Goal=   None    Shift=    0.000
 Gap=     0.103 Goal=   None    Shift=    0.000
 RMSDP=4.39D-07 MaxDP=1.81D-05 DE=-3.25D-09 OVMax= 1.14D-05

 Cycle  15  Pass 1  IDiag  1:
 RMSU=  2.46D-07    CP:  6.44D-01  9.77D-01  8.44D-01  8.14D-01  6.96D-01
                    CP:  7.87D-01  8.39D-01  7.43D-01  1.27D+00  1.21D+00
                    CP:  9.85D-01  8.61D-01  8.55D-01  7.98D-01
 E= -493.540844535704     Delta-E=       -0.000000000845 Rises=F Damp=F
 DIIS: error= 1.96D-07 at cycle  15 NSaved=  15.
 NSaved=15 IEnMin=15 EnMin= -493.540844535704     IErMin=15 ErrMin= 1.96D-07
 ErrMax= 1.96D-07  0.00D+00 EMaxC= 1.00D-01 BMatC= 8.69D-11 BMatP= 3.12D-09
 IDIUse=1 WtCom= 1.00D+00 WtEn= 0.00D+00
 Coeff-Com: -0.497D-05-0.476D-06-0.217D-05 0.378D-04 0.152D-03 0.362D-03
 Coeff-Com:  0.141D-02 0.154D-02 0.152D-02-0.637D-02-0.635D-02 0.116D-01
 Coeff-Com:  0.105D+00 0.206D+00 0.685D+00
 Coeff:     -0.497D-05-0.476D-06-0.217D-05 0.378D-04 0.152D-03 0.362D-03
 Coeff:      0.141D-02 0.154D-02 0.152D-02-0.637D-02-0.635D-02 0.116D-01
 Coeff:      0.105D+00 0.206D+00 0.685D+00
 Gap=     0.103 Goal=   None    Shift=    0.000
 Gap=     0.103 Goal=   None    Shift=    0.000
 RMSDP=1.96D-07 MaxDP=7.69D-06 DE=-8.45D-10 OVMax= 1.54D-06

 Cycle  16  Pass 1  IDiag  1:
 RMSU=  1.05D-07    CP:  6.44D-01  9.77D-01  8.44D-01  8.14D-01  6.96D-01
                    CP:  7.87D-01  8.39D-01  7.43D-01  1.26D+00  1.20D+00
                    CP:  9.80D-01  8.58D-01  8.69D-01  8.54D-01  8.81D-01
 E= -493.540844535724     Delta-E=       -0.000000000020 Rises=F Damp=F
 DIIS: error= 1.33D-07 at cycle  16 NSaved=  16.
 NSaved=16 IEnMin=16 EnMin= -493.540844535724     IErMin=16 ErrMin= 1.33D-07
 ErrMax= 1.33D-07  0.00D+00 EMaxC= 1.00D-01 BMatC= 1.90D-11 BMatP= 8.69D-11
 IDIUse=1 WtCom= 1.00D+00 WtEn= 0.00D+00
 Coeff-Com: -0.639D-06 0.212D-06-0.161D-05-0.750D-05 0.798D-05 0.183D-04
 Coeff-Com:  0.171D-03 0.339D-03 0.187D-02-0.118D-02-0.340D-02-0.502D-02
 Coeff-Com:  0.711D-02 0.447D-01 0.366D+00 0.589D+00
 Coeff:     -0.639D-06 0.212D-06-0.161D-05-0.750D-05 0.798D-05 0.183D-04
 Coeff:      0.171D-03 0.339D-03 0.187D-02-0.118D-02-0.340D-02-0.502D-02
 Coeff:      0.711D-02 0.447D-01 0.366D+00 0.589D+00
 Gap=     0.103 Goal=   None    Shift=    0.000
 Gap=     0.103 Goal=   None    Shift=    0.000
 RMSDP=5.38D-08 MaxDP=2.18D-06 DE=-2.02D-11 OVMax= 1.12D-06

 Cycle  17  Pass 1  IDiag  1:
 RMSU=  2.35D-08    CP:  6.44D-01  9.77D-01  8.44D-01  8.14D-01  6.96D-01
                    CP:  7.87D-01  8.39D-01  7.43D-01  1.27D+00  1.20D+00
                    CP:  9.80D-01  8.59D-01  8.73D-01  8.56D-01  9.12D-01
                    CP:  7.29D-01
 E= -493.540844535705     Delta-E=        0.000000000020 Rises=F Damp=F
 DIIS: error= 2.58D-08 at cycle  17 NSaved=  17.
 NSaved=17 IEnMin=16 EnMin= -493.540844535724     IErMin=17 ErrMin= 2.58D-08
 ErrMax= 2.58D-08  0.00D+00 EMaxC= 1.00D-01 BMatC= 1.33D-12 BMatP= 1.90D-11
 IDIUse=1 WtCom= 1.00D+00 WtEn= 0.00D+00
 Coeff-Com:  0.115D-06 0.462D-07-0.303D-06-0.296D-05-0.621D-05-0.130D-04
 Coeff-Com: -0.358D-04-0.141D-04 0.584D-03 0.226D-03-0.303D-03-0.237D-02
 Coeff-Com: -0.640D-02-0.324D-02 0.451D-01 0.152D+00 0.814D+00
 Coeff:      0.115D-06 0.462D-07-0.303D-06-0.296D-05-0.621D-05-0.130D-04
 Coeff:     -0.358D-04-0.141D-04 0.584D-03 0.226D-03-0.303D-03-0.237D-02
 Coeff:     -0.640D-02-0.324D-02 0.451D-01 0.152D+00 0.814D+00
 Gap=     0.103 Goal=   None    Shift=    0.000
 Gap=     0.103 Goal=   None    Shift=    0.000
 RMSDP=1.29D-08 MaxDP=5.78D-07 DE= 1.96D-11 OVMax= 2.62D-07

 Cycle  18  Pass 1  IDiag  1:
 RMSU=  5.98D-09    CP:  6.44D-01  9.77D-01  8.44D-01  8.14D-01  6.96D-01
                    CP:  7.87D-01  8.39D-01  7.43D-01  1.26D+00  1.20D+00
                    CP:  9.80D-01  8.59D-01  8.74D-01  8.58D-01  9.10D-01
                    CP:  7.44D-01  9.50D-01
 E= -493.540844535699     Delta-E=        0.000000000005 Rises=F Damp=F
 DIIS: error= 4.43D-09 at cycle  18 NSaved=  18.
 NSaved=18 IEnMin=16 EnMin= -493.540844535724     IErMin=18 ErrMin= 4.43D-09
 ErrMax= 4.43D-09  0.00D+00 EMaxC= 1.00D-01 BMatC= 5.35D-14 BMatP= 1.33D-12
 IDIUse=1 WtCom= 1.00D+00 WtEn= 0.00D+00
 Coeff-Com:  0.339D-07 0.204D-07-0.823D-07-0.748D-06-0.246D-05-0.483D-05
 Coeff-Com: -0.179D-04-0.236D-04 0.144D-03 0.136D-03 0.797D-04-0.563D-03
 Coeff-Com: -0.211D-02-0.163D-02 0.804D-02 0.409D-01 0.316D+00 0.639D+00
 Coeff:      0.339D-07 0.204D-07-0.823D-07-0.748D-06-0.246D-05-0.483D-05
 Coeff:     -0.179D-04-0.236D-04 0.144D-03 0.136D-03 0.797D-04-0.563D-03
 Coeff:     -0.211D-02-0.163D-02 0.804D-02 0.409D-01 0.316D+00 0.639D+00
 Gap=     0.103 Goal=   None    Shift=    0.000
 Gap=     0.103 Goal=   None    Shift=    0.000
 RMSDP=3.25D-09 MaxDP=1.93D-07 DE= 5.46D-12 OVMax= 3.67D-08

 SCF Done:  E(UB3LYP) =  -493.540844536     A.U. after   18 cycles
            NFock= 18  Conv=0.32D-08     -V/T= 2.0064
 <Sx>= 0.0000 <Sy>= 0.0000 <Sz>= 0.0000 <S**2>=-0.0000 S=-0.0000
 <L.S>= 0.000000000000E+00
 KE= 4.904088541207D+02 PE=-2.200406423338D+03 EE= 6.834233150196D+02
 Annihilation of the first spin contaminant:
 S**2 before annihilation    -0.0000,   after     0.0000
 Leave Link  502 at Sun Aug  9 03:37:13 2020, MaxMem=   524288000 cpu:            2351.5 elap:             336.0
 (Enter /home/ubuntu/g16/l601.exe)
 Copying SCF densities to generalized density rwf, IOpCl= 1 IROHF=0.

 **********************************************************************

            Population analysis using the SCF density.

 **********************************************************************

 Orbital symmetries:
 Alpha Orbitals:
       Occupied  (A) (A) (A) (A) (A) (A) (A) (A) (A) (A) (A) (A)
                 (A) (A) (A) (A) (A) (A) (A) (A) (A) (A) (A) (A)
                 (A) (A) (A) (A) (A) (A) (A) (A) (A) (A) (A) (A)
                 (A) (A)
       Virtual   (A) (A) (A) (A) (A) (A) (A) (A) (A) (A) (A) (A)
                 (A) (A) (A) (A) (A) (A) (A) (A) (A) (A) (A) (A)
                 (A) (A) (A) (A) (A) (A) (A) (A) (A) (A) (A) (A)
                 (A) (A) (A) (A) (A) (A) (A) (A) (A) (A) (A) (A)
                 (A) (A) (A) (A) (A) (A) (A) (A) (A) (A) (A) (A)
                 (A) (A) (A) (A) (A) (A) (A) (A) (A) (A) (A) (A)
                 (A) (A) (A) (A) (A) (A) (A) (A) (A) (A) (A) (A)
                 (A) (A) (A) (A) (A) (A) (A) (A) (A) (A) (A) (A)
                 (A) (A) (A) (A) (A) (A) (A) (A) (A) (A) (A) (A)
                 (A) (A) (A) (A) (A) (A) (A) (A) (A) (A) (A) (A)
                 (A) (A) (A) (A) (A) (A) (A) (A) (A) (A) (A) (A)
                 (A) (A) (A) (A) (A) (A) (A) (A) (A) (A) (A) (A)
                 (A) (A) (A) (A) (A) (A) (A) (A) (A) (A) (A) (A)
                 (A) (A) (A) (A) (A) (A) (A) (A) (A) (A) (A) (A)
                 (A) (A) (A) (A) (A) (A) (A) (A) (A) (A) (A) (A)
                 (A) (A) (A) (A) (A) (A) (A) (A) (A) (A) (A) (A)
                 (A) (A) (A) (A) (A) (A) (A) (A) (A) (A) (A) (A)
                 (A) (A) (A) (A) (A) (A) (A) (A) (A) (A) (A) (A)
                 (A) (A) (A) (A) (A) (A) (A) (A) (A) (A) (A) (A)
                 (A) (A) (A) (A) (A) (A) (A) (A) (A) (A) (A) (A)
                 (A) (A) (A) (A) (A) (A) (A) (A) (A) (A) (A) (A)
                 (A) (A) (A) (A) (A) (A) (A) (A) (A) (A) (A) (A)
                 (A) (A) (A) (A) (A) (A) (A) (A) (A) (A) (A) (A)
                 (A) (A)
 Beta  Orbitals:
       Occupied  (A) (A) (A) (A) (A) (A) (A) (A) (A) (A) (A) (A)
                 (A) (A) (A) (A) (A) (A) (A) (A) (A) (A) (A) (A)
                 (A) (A) (A) (A) (A) (A) (A) (A) (A) (A) (A) (A)
                 (A) (A)
       Virtual   (A) (A) (A) (A) (A) (A) (A) (A) (A) (A) (A) (A)
                 (A) (A) (A) (A) (A) (A) (A) (A) (A) (A) (A) (A)
                 (A) (A) (A) (A) (A) (A) (A) (A) (A) (A) (A) (A)
                 (A) (A) (A) (A) (A) (A) (A) (A) (A) (A) (A) (A)
                 (A) (A) (A) (A) (A) (A) (A) (A) (A) (A) (A) (A)
                 (A) (A) (A) (A) (A) (A) (A) (A) (A) (A) (A) (A)
                 (A) (A) (A) (A) (A) (A) (A) (A) (A) (A) (A) (A)
                 (A) (A) (A) (A) (A) (A) (A) (A) (A) (A) (A) (A)
                 (A) (A) (A) (A) (A) (A) (A) (A) (A) (A) (A) (A)
                 (A) (A) (A) (A) (A) (A) (A) (A) (A) (A) (A) (A)
                 (A) (A) (A) (A) (A) (A) (A) (A) (A) (A) (A) (A)
                 (A) (A) (A) (A) (A) (A) (A) (A) (A) (A) (A) (A)
                 (A) (A) (A) (A) (A) (A) (A) (A) (A) (A) (A) (A)
                 (A) (A) (A) (A) (A) (A) (A) (A) (A) (A) (A) (A)
                 (A) (A) (A) (A) (A) (A) (A) (A) (A) (A) (A) (A)
                 (A) (A) (A) (A) (A) (A) (A) (A) (A) (A) (A) (A)
                 (A) (A) (A) (A) (A) (A) (A) (A) (A) (A) (A) (A)
                 (A) (A) (A) (A) (A) (A) (A) (A) (A) (A) (A) (A)
                 (A) (A) (A) (A) (A) (A) (A) (A) (A) (A) (A) (A)
                 (A) (A) (A) (A) (A) (A) (A) (A) (A) (A) (A) (A)
                 (A) (A) (A) (A) (A) (A) (A) (A) (A) (A) (A) (A)
                 (A) (A) (A) (A) (A) (A) (A) (A) (A) (A) (A) (A)
                 (A) (A) (A) (A) (A) (A) (A) (A) (A) (A) (A) (A)
                 (A) (A)
 The electronic state is 1-A.
     Natural Orbital Coefficients:
                           1         2         3         4         5
     Eigenvalues --     2.00000   2.00000   2.00000   2.00000   2.00000
   1 1   C  1S         -0.08103  -0.01749   0.00252  -0.04589   0.06277
   2        2S          0.15773   0.03882   0.01397   0.03629  -0.04237
   3        3S          0.33652   0.09280   0.00291   0.06696  -0.10830
   4        4S         -2.05856  -0.58288  -0.31148   0.10191  -0.17647
   5        5PX         0.13413   0.04448   0.03725  -0.04645   0.05250
   6        5PY        -0.19280  -0.04542  -0.05375   0.01947  -0.03680
   7        5PZ         0.10117  -0.15365  -0.30298   0.11322  -0.06067
   8        6PX        -0.20782  -0.05225   0.00053  -0.01191  -0.05751
   9        6PY         0.17272   0.04437   0.03030   0.02265  -0.06887
  10        6PZ         0.04711  -0.05460  -0.16209   0.09211  -0.03143
  11        7PX         0.19359   0.09201  -0.01049   0.00716  -0.02883
  12        7PY        -0.19810  -0.03719  -0.04969   0.01499  -0.03757
  13        7PZ         0.00232   0.00606  -0.02126   0.00379  -0.01082
  14        8D 0       -0.00076   0.00003   0.00023  -0.00164   0.00164
  15        8D+1       -0.00049   0.00262   0.00622  -0.01322  -0.01909
  16        8D-1        0.00505  -0.00989  -0.00520  -0.00297  -0.01429
  17        8D+2       -0.00693  -0.00209  -0.00121   0.00153  -0.00365
  18        8D-2       -0.01576  -0.00336  -0.00335  -0.00076  -0.00067
  19        9D 0        0.00542   0.00201  -0.00003   0.00081  -0.00210
  20        9D+1        0.00680  -0.01703  -0.01375  -0.02312  -0.00814
  21        9D-1       -0.00060  -0.00251   0.00373   0.00366   0.00632
  22        9D+2        0.06964   0.01929   0.00819  -0.00541   0.02949
  23        9D-2        0.13191   0.03650   0.03084  -0.01514   0.00782
  24 2   C  1S          0.06008   0.02409   0.01423  -0.03240   0.00340
  25        2S         -0.16275  -0.05432  -0.02211   0.05405  -0.07376
  26        3S         -0.14071  -0.02964  -0.04159   0.06196  -0.10901
  27        4S          2.02345   0.57123   0.26891  -0.09105   0.20540
  28        5PX         0.08145   0.01839  -0.01267   0.03398  -0.03237
  29        5PY         0.12122   0.02906   0.01799   0.00261   0.00053
  30        5PZ         0.05794  -0.13027  -0.18377   0.19854   0.18810
  31        6PX        -0.28050  -0.06829   0.00377  -0.06604   0.00363
  32        6PY        -0.08539  -0.01168  -0.02272   0.00215  -0.00327
  33        6PZ         0.03212  -0.06637  -0.11748   0.09427   0.10362
  34        7PX         0.35697   0.14451   0.00739   0.00216  -0.02648
  35        7PY         0.19648   0.03627   0.04626  -0.01368   0.04184
  36        7PZ         0.00325  -0.01664  -0.00007   0.01188   0.02466
  37        8D 0        0.00044   0.00037   0.00020  -0.00208   0.00262
  38        8D+1        0.00549  -0.00626  -0.01782   0.00461  -0.00877
  39        8D-1        0.00028  -0.00623   0.00472   0.00391   0.01192
  40        8D+2        0.00568   0.00166  -0.00066   0.00121  -0.00198
  41        8D-2       -0.01814  -0.00456  -0.00374   0.00013  -0.00063
  42        9D 0       -0.00017  -0.00013  -0.00020  -0.00070   0.00029
  43        9D+1        0.00672  -0.02298  -0.01857  -0.02659   0.00971
  44        9D-1       -0.00224   0.00711   0.00036  -0.00308  -0.00095
  45        9D+2       -0.07627  -0.02621   0.00104   0.00823  -0.01940
  46        9D-2        0.11473   0.03559   0.02760  -0.04756   0.05145
  47 3   C  1S         -0.02484   0.00347   0.01458   0.03295   0.00679
  48        2S         -0.03823  -0.00934  -0.01589   0.00984   0.02095
  49        3S         -0.16465  -0.04617  -0.05696  -0.02298   0.07892
  50        4S          1.30724   0.39885   0.20931  -0.07330   0.06623
  51        5PX         0.04578   0.02021   0.01663  -0.04499   0.03449
  52        5PY        -0.03155  -0.02323   0.00558   0.01182   0.03863
  53        5PZ         0.10298  -0.19567  -0.08954  -0.10756  -0.35313
  54        6PX         0.07863   0.02335   0.02422   0.01708  -0.03959
  55        6PY         0.17262   0.04315   0.03708  -0.02232  -0.03799
  56        6PZ         0.04608  -0.08061  -0.05126  -0.06061  -0.18044
  57        7PX        -0.29499  -0.09305  -0.04516   0.02072  -0.02738
  58        7PY        -0.23976  -0.01879  -0.08978   0.04315  -0.09012
  59        7PZ         0.00270  -0.00759   0.00150  -0.00050  -0.00438
  60        8D 0       -0.00562  -0.00174  -0.00012  -0.00053  -0.00055
  61        8D+1       -0.00140   0.00924  -0.00248  -0.00824  -0.00646
  62        8D-1       -0.00364  -0.00193   0.02905  -0.01074  -0.00491
  63        8D+2       -0.01066  -0.00204  -0.00202  -0.00325   0.00052
  64        8D-2       -0.00225  -0.00056  -0.00063   0.00002  -0.00290
  65        9D 0       -0.01384  -0.00387  -0.00223  -0.00211   0.00302
  66        9D+1       -0.01030   0.02325   0.00671   0.01587   0.01990
  67        9D-1       -0.00035  -0.00625   0.01140  -0.01042  -0.00020
  68        9D+2       -0.01067  -0.00190   0.00370   0.01674  -0.02389
  69        9D-2       -0.03498  -0.01122  -0.00498   0.00522   0.02376
  70 4   C  1S          0.00221  -0.01192   0.00585  -0.01527   0.04038
  71        2S          0.02532   0.00094   0.01042   0.03579  -0.04523
  72        3S          0.06196   0.03627   0.05054  -0.06645   0.02181
  73        4S         -0.95440  -0.28079  -0.10985  -0.00054  -0.04357
  74        5PX        -0.00376  -0.01095   0.00500   0.01717  -0.00109
  75        5PY         0.01200   0.00246  -0.00591   0.01290  -0.00280
  76        5PZ        -0.00079  -0.10953   0.09388   0.07956   0.25969
  77        6PX        -0.03971   0.00629   0.03332  -0.11066   0.09549
  78        6PY        -0.11211  -0.00537  -0.03077  -0.01091   0.00639
  79        6PZ         0.00463  -0.08818   0.05035   0.03638   0.16885
  80        7PX        -0.62278  -0.20948  -0.05717   0.02955  -0.03164
  81        7PY         0.24794   0.01557   0.08425  -0.04308   0.11472
  82        7PZ        -0.00692   0.02662  -0.00532  -0.00816  -0.01020
  83        8D 0        0.00399   0.00159   0.00024  -0.00219   0.00278
  84        8D+1        0.00359  -0.01436   0.00645   0.01130   0.00449
  85        8D-1       -0.00299  -0.00098   0.02151  -0.01172  -0.00432
  86        8D+2        0.01483   0.00511   0.00031   0.00073  -0.00170
  87        8D-2        0.00533   0.00156   0.00097  -0.00001   0.00130
  88        9D 0        0.00865   0.00334   0.00199  -0.00402   0.00471
  89        9D+1       -0.00287   0.01213   0.01569   0.03405  -0.00793
  90        9D-1       -0.00602   0.01954   0.01105   0.00088  -0.01058
  91        9D+2        0.08198   0.00875  -0.01897   0.09250  -0.07533
  92        9D-2        0.02756   0.02969   0.00120  -0.04832   0.03989
  93 5   C  1S         -0.02946   0.01173  -0.00140  -0.03789   0.01296
  94        2S          0.06784   0.01300  -0.00178   0.05450  -0.01900
  95        3S          0.05489  -0.00410  -0.02669   0.14028  -0.05945
  96        4S         -1.20720  -0.39654  -0.08815  -0.06662   0.02447
  97        5PX        -0.03705  -0.01338  -0.00627  -0.00497   0.03977
  98        5PY         0.06789   0.02739   0.00434  -0.00194  -0.02898
  99        5PZ         0.02724  -0.18963   0.28244  -0.11453  -0.16543
 100        6PX        -0.19352  -0.05191   0.00762  -0.03708   0.04625
 101        6PY        -0.01535  -0.00114  -0.00281  -0.03549  -0.00749
 102        6PZ         0.00458  -0.07379   0.16371  -0.05174  -0.08912
 103        7PX         0.33754   0.07244   0.06766  -0.01380   0.06393
 104        7PY         0.06251   0.04040  -0.00959   0.00313  -0.02825
 105        7PZ        -0.00139   0.00062   0.01163  -0.01288  -0.01371
 106        8D 0        0.00045   0.00061   0.00032  -0.00202   0.00065
 107        8D+1        0.00250   0.00448  -0.01853  -0.00183  -0.01323
 108        8D-1       -0.00467   0.00996   0.00210   0.00470   0.01564
 109        8D+2        0.00311   0.00058   0.00125   0.00015  -0.00138
 110        8D-2        0.01074   0.00389   0.00041   0.00185  -0.00400
 111        9D 0        0.00404   0.00088   0.00037   0.00159  -0.00027
 112        9D+1        0.00475  -0.01092  -0.00059  -0.00865  -0.01392
 113        9D-1        0.00147  -0.00353  -0.00179  -0.00771  -0.00305
 114        9D+2        0.02217   0.00512  -0.00637   0.00842  -0.00823
 115        9D-2       -0.00675  -0.00664   0.00261  -0.00973   0.00812
 116 6   C  1S         -0.04466  -0.01163  -0.00818  -0.00277   0.03547
 117        2S         -0.02183  -0.02358   0.00914   0.04029  -0.03326
 118        3S          0.00833  -0.03824   0.00926   0.11865  -0.10221
 119        4S          1.30759   0.45257   0.07858   0.03844  -0.02496
 120        5PX         0.09998   0.03704   0.00184   0.01220  -0.02548
 121        5PY        -0.08270  -0.02975   0.00032  -0.02378   0.02142
 122        5PZ        -0.00669  -0.16177   0.32261  -0.02456   0.08827
 123        6PX        -0.21540  -0.04220   0.02084  -0.11201   0.09028
 124        6PY         0.04254   0.04302   0.00445  -0.06250   0.04379
 125        6PZ        -0.00104  -0.10176   0.18026  -0.02805   0.05058
 126        7PX         0.39173   0.08245   0.06779   0.00767   0.05452
 127        7PY        -0.08991  -0.05004   0.01304  -0.00312   0.02471
 128        7PZ         0.00050  -0.01184   0.01646   0.01251   0.01582
 129        8D 0       -0.00073   0.00030  -0.00017  -0.00209   0.00159
 130        8D+1        0.00158  -0.00782   0.01357  -0.00638  -0.01516
 131        8D-1       -0.00042   0.00698  -0.00561  -0.00358  -0.01127
 132        8D+2        0.00667   0.00254  -0.00031   0.00132  -0.00150
 133        8D-2        0.00946   0.00332   0.00048   0.00181  -0.00359
 134        9D 0       -0.00729  -0.00260  -0.00115   0.00235  -0.00315
 135        9D+1        0.00261  -0.01340   0.00845  -0.00468   0.00022
 136        9D-1       -0.00167   0.00836   0.00226   0.00798  -0.00555
 137        9D+2       -0.01566  -0.00026   0.00575  -0.02180   0.02139
 138        9D-2        0.00865  -0.01245   0.00078   0.02850  -0.01888
 139 7   N  1S          0.01926  -0.00023  -0.00064   0.03330  -0.02196
 140        2S          0.00474   0.00636  -0.01256  -0.02627   0.03263
 141        3S          0.00010   0.01332  -0.01513  -0.04799   0.04891
 142        4S         -0.13409  -0.02827  -0.02563  -0.01283   0.00810
 143        5PX        -0.02123  -0.01583  -0.01157   0.03155  -0.02601
 144        5PY        -0.00196  -0.00210   0.01008  -0.01200  -0.00947
 145        5PZ         0.01076   0.04600  -0.02458  -0.10340  -0.09230
 146        6PX         0.01573   0.00785   0.00529   0.01246  -0.02093
 147        6PY         0.00979   0.00231   0.00735  -0.00929  -0.00744
 148        6PZ         0.00924   0.02038  -0.02101  -0.06690  -0.06677
 149        7PX         0.08409   0.03509   0.02488  -0.02793   0.01483
 150        7PY         0.01795   0.00479   0.00456  -0.00334  -0.00204
 151        7PZ         0.00225  -0.00037  -0.00667  -0.01105  -0.01291
 152        8D 0       -0.00083  -0.00016   0.00010   0.00066  -0.00139
 153        8D+1       -0.00631   0.01356   0.00716   0.00446   0.02375
 154        8D-1       -0.00005  -0.00044   0.00153  -0.00069  -0.00087
 155        8D+2       -0.00030  -0.00016  -0.00045  -0.00094   0.00172
 156        8D-2        0.00066   0.00079   0.00017  -0.00094  -0.00240
 157        9D 0        0.00205   0.00019  -0.00029  -0.00189   0.00248
 158        9D+1       -0.01417   0.02897   0.01122   0.01304   0.04410
 159        9D-1       -0.00012  -0.00054   0.00262  -0.00157  -0.00170
 160        9D+2        0.00302   0.00160   0.00118   0.00138  -0.00243
 161        9D-2        0.01279   0.00470   0.00211  -0.00266  -0.00339
 162 8   N  1S          0.01928   0.01204  -0.00675   0.00916   0.00561
 163        2S          0.02865   0.00072   0.01049  -0.00405   0.00906
 164        3S          0.02369  -0.00873   0.01480  -0.00721   0.01910
 165        4S         -0.03607  -0.02789  -0.01182   0.03321  -0.01557
 166        5PX         0.03528   0.01079   0.02518  -0.01230   0.00343
 167        5PY         0.00592   0.00425   0.00697  -0.01200  -0.01725
 168        5PZ        -0.04247   0.11230   0.05591   0.00250   0.16314
 169        6PX         0.02365   0.01112   0.01104  -0.00681  -0.00121
 170        6PY        -0.01124  -0.00216  -0.00002  -0.00270  -0.00696
 171        6PZ        -0.01918   0.04311   0.03406   0.01228   0.09209
 172        7PX         0.00827   0.00478   0.00074  -0.00378   0.00200
 173        7PY         0.00143  -0.00025   0.00062  -0.00051   0.00199
 174        7PZ        -0.00430   0.00522   0.00852   0.01046   0.02240
 175        8D 0        0.00072   0.00025   0.00086  -0.00020  -0.00018
 176        8D+1        0.00082  -0.00614  -0.00054   0.00543  -0.00046
 177        8D-1       -0.00002   0.00011   0.00007  -0.00016   0.00000
 178        8D+2       -0.00185  -0.00058  -0.00165   0.00046   0.00019
 179        8D-2        0.00004   0.00004  -0.00072   0.00097   0.00100
 180        9D 0        0.00137   0.00078   0.00026  -0.00000  -0.00028
 181        9D+1       -0.00224   0.00464   0.00049   0.00164   0.00488
 182        9D-1       -0.00001  -0.00017   0.00057  -0.00006  -0.00021
 183        9D+2       -0.00326  -0.00158  -0.00050   0.00023   0.00034
 184        9D-2        0.00561   0.00180   0.00102  -0.00083  -0.00040
 185 9   H  1S         -0.22948  -0.06348  -0.02384   0.01662  -0.03016
 186        2S         -0.59944  -0.15992  -0.07379   0.03851  -0.08567
 187        3S          0.09527   0.02897   0.01197  -0.00209   0.00542
 188        4PX        -0.00645  -0.00192  -0.00109   0.00157  -0.00221
 189        4PY        -0.01099  -0.00331  -0.00080   0.00141  -0.00222
 190        4PZ         0.00187  -0.00405  -0.00646   0.00714   0.00675
 191        5PX        -0.06376  -0.01734  -0.00614  -0.00107  -0.00281
 192        5PY        -0.12344  -0.03205  -0.01564   0.00636  -0.01686
 193        5PZ        -0.00020   0.00189  -0.00678  -0.00152   0.00430
 194 10  H  1S          0.07036   0.02147  -0.00284   0.03058  -0.01802
 195        2S          0.18700   0.06596  -0.00548   0.04924  -0.03698
 196        3S         -0.05930  -0.01882  -0.00620   0.00066  -0.00356
 197        4PX        -0.00333  -0.00096  -0.00007  -0.00144   0.00140
 198        4PY        -0.00329  -0.00064   0.00009  -0.00215   0.00014
 199        4PZ         0.00077  -0.00629   0.01025  -0.00406  -0.00558
 200        5PX        -0.01798  -0.00610   0.00151  -0.00402   0.00123
 201        5PY        -0.03882  -0.01429  -0.00009  -0.00765   0.00795
 202        5PZ        -0.00208   0.00223   0.00680   0.00167   0.00327
 203 11  H  1S         -0.11385  -0.05088   0.00511   0.00041   0.00914
 204        2S         -0.24665  -0.10962   0.01057  -0.01106   0.03865
 205        3S          0.07294   0.02383   0.00528  -0.00257   0.00595
 206        4PX        -0.00115  -0.00090   0.00036   0.00049  -0.00027
 207        4PY         0.00510   0.00251  -0.00041  -0.00103   0.00079
 208        4PZ        -0.00041  -0.00511   0.01079  -0.00166   0.00329
 209        5PX        -0.03032  -0.01082   0.00121  -0.00820   0.01101
 210        5PY         0.05029   0.02274  -0.00271   0.00280  -0.00918
 211        5PZ         0.00002  -0.00450   0.00261  -0.00760   0.00415
 212 12  H  1S          0.28915   0.07309   0.06303  -0.01037   0.02465
 213        2S          0.63858   0.16793   0.12508  -0.03753   0.06773
 214        3S         -0.08010  -0.02336  -0.01092   0.00293  -0.00462
 215        4PX        -0.00659  -0.00146  -0.00125  -0.00089   0.00094
 216        4PY         0.01411   0.00369   0.00259   0.00019   0.00001
 217        4PZ         0.00346  -0.00506  -0.01094   0.00412  -0.00178
 218        5PX        -0.05869  -0.01575  -0.01111   0.00462  -0.01057
 219        5PY         0.12493   0.03237   0.02542  -0.00798   0.01335
 220        5PZ        -0.00047   0.00185  -0.00344   0.00633   0.00540
 221 13  C  1S          0.04737   0.01611  -0.00410  -0.00673   0.00041
 222        2S          0.00369   0.00048  -0.00098   0.01189  -0.01204
 223        3S         -0.14354  -0.02266   0.01757  -0.10134   0.08040
 224        4S         -0.18740  -0.07521  -0.01253   0.01928   0.01168
 225        5PX         0.01304   0.01105  -0.00367   0.00874  -0.03547
 226        5PY        -0.08745  -0.02581  -0.01373   0.00425  -0.01719
 227        5PZ        -0.05234   0.15292  -0.06077  -0.19173   0.05027
 228        6PX         0.00532   0.02258   0.02615  -0.10778   0.08925
 229        6PY         0.09493   0.03999   0.01006  -0.03786   0.04206
 230        6PZ        -0.02616   0.08335  -0.01760  -0.05921   0.00899
 231        7PX        -0.04795  -0.02470  -0.00274   0.03272  -0.02671
 232        7PY        -0.08477  -0.02954  -0.01166   0.03162  -0.03300
 233        7PZ         0.00556  -0.02218   0.00272  -0.00010   0.00883
 234        8D 0        0.00358   0.00109   0.00003   0.00012   0.00078
 235        8D+1        0.00203  -0.01323   0.00635   0.00868   0.01501
 236        8D-1       -0.00110  -0.00005  -0.01488  -0.03677   0.00779
 237        8D+2        0.01169   0.00367   0.00125   0.00001   0.00085
 238        8D-2        0.00345   0.00157  -0.00005   0.00159  -0.00102
 239        9D 0        0.00077  -0.00008   0.00042  -0.00107   0.00048
 240        9D+1       -0.00551   0.02083   0.00952   0.01721  -0.00689
 241        9D-1        0.00885  -0.03597  -0.01138  -0.02260   0.01559
 242        9D+2        0.00104   0.00624   0.00419  -0.03173   0.02936
 243        9D-2       -0.01676  -0.00159  -0.00780   0.00497  -0.01244
 244 14  O  1S         -0.00010   0.00134   0.01893  -0.01279   0.03414
 245        2S         -0.01366  -0.00508   0.00365  -0.02560  -0.00073
 246        3S         -0.00903  -0.00284   0.00408  -0.03210  -0.00292
 247        4S          0.01393   0.01193   0.00067  -0.02011   0.00042
 248        5PX        -0.07245  -0.01868  -0.01186   0.01957  -0.03080
 249        5PY         0.06326   0.02339   0.00855  -0.01249  -0.00373
 250        5PZ        -0.04884   0.15315  -0.15705  -0.37903   0.02206
 251        6PX        -0.03310  -0.00869  -0.00568   0.01224  -0.01740
 252        6PY         0.01703   0.00756   0.00331  -0.00887  -0.00070
 253        6PZ        -0.03254   0.10602  -0.09594  -0.23101   0.00516
 254        7PX        -0.00479   0.00025  -0.00095  -0.00284   0.00150
 255        7PY         0.01249   0.00286   0.00162  -0.00039   0.00394
 256        7PZ        -0.00664   0.02603  -0.01555  -0.03327  -0.00933
 257        8D 0        0.00238   0.00079   0.00032  -0.00042   0.00032
 258        8D+1       -0.00104   0.00277  -0.00205  -0.00618   0.00131
 259        8D-1        0.00236  -0.00728   0.00509   0.01314  -0.00144
 260        8D+2        0.00153   0.00072   0.00006   0.00011  -0.00083
 261        8D-2        0.00359   0.00096   0.00062  -0.00065   0.00143
 262        9D 0       -0.00482  -0.00141  -0.00044  -0.00063  -0.00007
 263        9D+1       -0.00164   0.00499  -0.00151  -0.00648   0.00022
 264        9D-1        0.00270  -0.00861   0.00365   0.01031  -0.00081
 265        9D+2       -0.00686  -0.00203  -0.00060  -0.00036  -0.00082
 266        9D-2       -0.00274  -0.00072  -0.00004  -0.00150   0.00123
 267 15  C  1S         -0.00995  -0.00115   0.00518  -0.01900   0.00235
 268        2S         -0.04775  -0.01098  -0.00152   0.00272  -0.01284
 269        3S          0.06272   0.02242   0.01873  -0.03052   0.04125
 270        4S         -0.13980  -0.05721  -0.01197   0.05730  -0.05604
 271        5PX        -0.04544  -0.02055  -0.00010   0.00771   0.00112
 272        5PY         0.10463   0.03003   0.01145  -0.00452   0.02689
 273        5PZ        -0.05648   0.25869   0.09743   0.21283  -0.16957
 274        6PX         0.07059   0.02551   0.01067  -0.02365   0.02847
 275        6PY         0.06963   0.02314   0.01466  -0.02978   0.04156
 276        6PZ        -0.00702   0.02528   0.00143  -0.00098  -0.00552
 277        7PX         0.00184   0.00038   0.00196   0.00101  -0.00133
 278        7PY        -0.04233  -0.01642  -0.00375   0.01050  -0.01021
 279        7PZ        -0.00076  -0.00145  -0.00741  -0.01503   0.00900
 280        8D 0       -0.00551  -0.00173  -0.00058   0.00036  -0.00102
 281        8D+1       -0.00232   0.00905   0.00111   0.00232  -0.00253
 282        8D-1        0.00041  -0.00497  -0.00653  -0.01648   0.00860
 283        8D+2        0.00284   0.00128   0.00015  -0.00017  -0.00048
 284        8D-2        0.00361   0.00088   0.00049   0.00014   0.00072
 285        9D 0        0.01899   0.00620   0.00147   0.00057   0.00160
 286        9D+1        0.00553  -0.02665  -0.01318  -0.02803   0.02092
 287        9D-1       -0.00689   0.03133   0.01012   0.02089  -0.02065
 288        9D+2       -0.01313  -0.00472  -0.00374   0.00291  -0.00275
 289        9D-2        0.02980   0.01098   0.00327  -0.00740   0.00847
 290 16  H  1S         -0.04582  -0.20345  -0.08375  -0.16912   0.10756
 291        2S         -0.01471  -0.16106  -0.08430  -0.19734   0.13968
 292        3S         -0.01855  -0.01765  -0.01055  -0.01801   0.01497
 293        4PX        -0.00122   0.00125   0.00049   0.00029  -0.00106
 294        4PY         0.00032  -0.00795  -0.00330  -0.00708   0.00484
 295        4PZ        -0.00475  -0.00381  -0.00119  -0.00115   0.00011
 296        5PX         0.00952   0.00347   0.00061  -0.00394   0.00034
 297        5PY        -0.01000  -0.01296  -0.00824  -0.01935   0.01192
 298        5PZ         0.00097  -0.02166  -0.01157  -0.02855   0.02429
 299 17  H  1S         -0.12155   0.15492   0.07071   0.17936  -0.14477
 300        2S         -0.07053   0.13616   0.07714   0.17549  -0.12647
 301        3S         -0.02027   0.00304   0.00638   0.02284  -0.01892
 302        4PX        -0.00041  -0.00223  -0.00030   0.00003   0.00163
 303        4PY        -0.00296   0.00729   0.00326   0.00740  -0.00550
 304        4PZ         0.00584  -0.00093  -0.00042  -0.00185   0.00276
 305        5PX         0.01015   0.00220   0.00101   0.00377   0.00226
 306        5PY        -0.01269   0.00628   0.00636   0.01703  -0.01208
 307        5PZ         0.00664  -0.02064  -0.01108  -0.02219   0.01745
 308 18  H  1S          0.04174   0.02015   0.00213  -0.00646  -0.00197
 309        2S          0.14430   0.05407   0.01524  -0.02271   0.01778
 310        3S          0.01290   0.00442   0.00267   0.00017  -0.00086
 311        4PX        -0.00039   0.00022  -0.00005   0.00003  -0.00057
 312        4PY         0.00352   0.00083   0.00038  -0.00006   0.00110
 313        4PZ        -0.00171   0.00793   0.00271   0.00605  -0.00529
 314        5PX         0.02790   0.01034   0.00289  -0.00395   0.00233
 315        5PY        -0.00140  -0.00094  -0.00105   0.00222  -0.00159
 316        5PZ         0.00188  -0.00858  -0.00411  -0.00784   0.00635
                           6         7         8         9        10
     Eigenvalues --     2.00000   2.00000   2.00000   2.00000   2.00000
   1 1   C  1S         -0.15047   0.16677  -0.06513  -0.14628  -0.16488
   2        2S          0.17510  -0.06887  -0.00417  -0.00391  -0.00326
   3        3S          0.25990  -0.45322  -0.05229  -0.06300   0.00267
   4        4S         -0.16057  -0.27879   0.19421   0.11011   0.08446
   5        5PX        -0.05904   0.12659  -0.07091  -0.03727   0.04258
   6        5PY        -0.01731  -0.24707  -0.02518  -0.05844   0.03007
   7        5PZ        -0.05565   0.05421   0.02957  -0.07819   0.11593
   8        6PX         0.21275   0.13713  -0.29947  -0.31921  -0.07238
   9        6PY         0.27954  -0.00626  -0.12995  -0.11604  -0.02452
  10        6PZ        -0.03716   0.03226   0.00115  -0.02827   0.06823
  11        7PX        -0.06204  -0.45623  -0.10527  -0.10960   0.06849
  12        7PY        -0.05911  -0.27763  -0.03963  -0.05226   0.04049
  13        7PZ        -0.00387   0.00419  -0.00347   0.00320   0.00293
  14        8D 0       -0.00551   0.00267  -0.00112  -0.00096  -0.00042
  15        8D+1       -0.00171   0.00054  -0.00072   0.00452  -0.00568
  16        8D-1       -0.00385   0.00257   0.00326  -0.00366   0.00485
  17        8D+2        0.00499  -0.00535  -0.00164  -0.00029  -0.00058
  18        8D-2       -0.00465  -0.01359  -0.00134  -0.00188   0.00305
  19        9D 0        0.00576  -0.00987  -0.00563  -0.00652  -0.00181
  20        9D+1        0.00367  -0.00032   0.00875  -0.00773  -0.00773
  21        9D-1        0.00030  -0.00108  -0.00618   0.00666   0.00295
  22        9D+2       -0.06717   0.00916   0.06434   0.06238   0.01054
  23        9D-2        0.04826   0.08624  -0.08293  -0.07477  -0.02712
  24 2   C  1S         -0.09906  -0.05621   0.10936   0.11270   0.12729
  25        2S          0.15291  -0.04777  -0.00129   0.02121   0.02403
  26        3S          0.05637  -0.42806  -0.19955  -0.12614   0.04849
  27        4S          0.00790   0.08657  -0.07875  -0.07598  -0.08336
  28        5PX         0.07240  -0.14901   0.07526   0.02745  -0.05184
  29        5PY         0.02808   0.04696  -0.04687  -0.03796   0.00893
  30        5PZ        -0.00797   0.01916   0.04225  -0.11184   0.14915
  31        6PX         0.06340   0.30547  -0.32635  -0.31124  -0.05222
  32        6PY        -0.16601  -0.24424  -0.04598   0.02875   0.08660
  33        6PZ         0.00093   0.00985   0.02933  -0.06674   0.06652
  34        7PX        -0.06139  -0.54816  -0.14745  -0.13711   0.06093
  35        7PY         0.04011   0.25634   0.05555   0.05497  -0.04715
  36        7PZ         0.00317  -0.00253   0.00382  -0.00868   0.00357
  37        8D 0       -0.00719   0.00224   0.00042   0.00017  -0.00051
  38        8D+1       -0.00390   0.00331   0.00009  -0.00185   0.00201
  39        8D-1        0.00168  -0.00099   0.00312  -0.00511   0.00931
  40        8D+2        0.00343  -0.00990  -0.00095  -0.00030   0.00028
  41        8D-2       -0.00561  -0.01274   0.00525   0.00114  -0.00074
  42        9D 0       -0.00686  -0.00343  -0.00032   0.00194   0.00265
  43        9D+1        0.00933  -0.00369   0.00150   0.00046  -0.01215
  44        9D-1        0.00069   0.00033  -0.00003   0.00103   0.00262
  45        9D+2        0.10183   0.11800  -0.01092  -0.03463  -0.03001
  46        9D-2       -0.07977   0.12748  -0.09005  -0.08407  -0.01224
  47 3   C  1S          0.01428   0.06930   0.14344  -0.04367  -0.24709
  48        2S         -0.01655  -0.01714   0.09057   0.05793   0.00946
  49        3S         -0.26146  -0.06406   0.27309   0.24798   0.08949
  50        4S          0.16326   0.02478  -0.30981  -0.16568   0.03058
  51        5PX        -0.07943   0.07616  -0.05095  -0.00358   0.01729
  52        5PY        -0.04571   0.20064   0.16750   0.13337  -0.05681
  53        5PZ        -0.08243   0.05469   0.07615  -0.07422   0.08039
  54        6PX         0.17141   0.01529  -0.15113  -0.13450  -0.03415
  55        6PY         0.23142   0.11753  -0.18627  -0.17404  -0.04332
  56        6PZ        -0.04016   0.02653   0.01557  -0.00771   0.03132
  57        7PX        -0.03718   0.02999   0.09966   0.09274   0.01891
  58        7PY        -0.12052  -0.68904  -0.06600  -0.07556   0.12779
  59        7PZ        -0.00144   0.00071   0.00495  -0.00610   0.00292
  60        8D 0       -0.00052   0.00267  -0.00487  -0.00481  -0.00158
  61        8D+1        0.00180   0.00035   0.01201  -0.01248  -0.01111
  62        8D-1        0.00106  -0.00313   0.00005   0.00348  -0.00103
  63        8D+2       -0.01056  -0.00444  -0.00298  -0.00089  -0.00026
  64        8D-2        0.00474  -0.00534  -0.00706  -0.00671  -0.00079
  65        9D 0       -0.01533   0.00201   0.00868   0.00608  -0.00055
  66        9D+1        0.00146  -0.00251  -0.02609   0.02968   0.00205
  67        9D-1        0.00236  -0.00231   0.00077   0.00122  -0.00222
  68        9D+2        0.09211  -0.01114  -0.08088  -0.11829  -0.05948
  69        9D-2       -0.07496   0.02574   0.08071   0.07745   0.00587
  70 4   C  1S         -0.06624   0.07808   0.11611   0.11697   0.04265
  71        2S          0.17755   0.06744  -0.06087  -0.04403   0.02057
  72        3S          0.05728   0.37615  -0.42548  -0.39343  -0.04141
  73        4S         -0.01253   0.08121  -0.07598  -0.05051  -0.01321
  74        5PX         0.02955   0.03649   0.10324   0.05312  -0.04188
  75        5PY         0.04476  -0.03431   0.09548   0.02960  -0.05407
  76        5PZ         0.03959  -0.02109   0.06545  -0.10614   0.19627
  77        6PX        -0.21152   0.24016  -0.29884  -0.20562   0.02063
  78        6PY        -0.23389  -0.28237  -0.13673  -0.04195   0.08270
  79        6PZ         0.03136  -0.02023   0.03032  -0.05263   0.07415
  80        7PX         0.04596   0.44694   0.16639   0.18959   0.04709
  81        7PY         0.08349   0.68479   0.09897   0.11028  -0.09966
  82        7PZ         0.00075   0.00052  -0.00952   0.01465  -0.01245
  83        8D 0       -0.00863  -0.00251   0.00191   0.00119  -0.00100
  84        8D+1       -0.00221  -0.00091   0.00058  -0.00336  -0.00155
  85        8D-1        0.00158  -0.00251   0.00027   0.00303  -0.00080
  86        8D+2        0.00109  -0.01391  -0.00472  -0.00539  -0.00055
  87        8D-2        0.00113   0.00160   0.00540   0.00255  -0.00165
  88        9D 0       -0.00817   0.00702  -0.00551  -0.00606  -0.00143
  89        9D+1       -0.01164   0.00486  -0.00027  -0.00414   0.02090
  90        9D-1       -0.00283   0.00214   0.00182  -0.00037   0.00902
  91        9D+2        0.16059  -0.23938   0.23640   0.17545  -0.00553
  92        9D-2       -0.25239  -0.20185  -0.17395  -0.07673   0.08757
  93 5   C  1S         -0.04135  -0.03775  -0.08871  -0.06815  -0.00936
  94        2S          0.07500  -0.07548   0.15663   0.14149   0.03288
  95        3S          0.14560  -0.19175   0.45846   0.32130  -0.04045
  96        4S         -0.04525   0.87502  -0.09134  -0.03776  -0.06712
  97        5PX        -0.05772   0.07365   0.06388   0.03671  -0.00995
  98        5PY         0.03637  -0.14260  -0.09779  -0.04793   0.06630
  99        5PZ        -0.03229  -0.00905   0.03730  -0.01376   0.08869
 100        6PX        -0.10481   0.21899  -0.17098  -0.14520  -0.05456
 101        6PY         0.02391   0.02405  -0.08589  -0.09727  -0.02653
 102        6PZ        -0.01956  -0.00446   0.00578   0.01032   0.05265
 103        7PX         0.06977   0.29872   0.08284   0.05598  -0.09375
 104        7PY        -0.04543  -0.24936  -0.06790  -0.04096   0.06866
 105        7PZ        -0.00090  -0.00018  -0.00268   0.00678   0.00194
 106        8D 0       -0.00348   0.00016  -0.00660  -0.00543  -0.00069
 107        8D+1       -0.00271   0.00313  -0.00120   0.00162  -0.00482
 108        8D-1        0.00380  -0.00229  -0.00327   0.00315  -0.00452
 109        8D+2        0.00412   0.00326  -0.00086   0.00162   0.00080
 110        8D-2        0.00694  -0.01753  -0.00405  -0.00598  -0.00023
 111        9D 0        0.00311   0.00011   0.00395   0.00349  -0.00076
 112        9D+1       -0.00159   0.00094   0.00935  -0.00985  -0.00521
 113        9D-1        0.00143  -0.00030   0.00576  -0.00576  -0.00465
 114        9D+2        0.02643  -0.04939   0.04035   0.01619   0.00032
 115        9D-2       -0.00399   0.06414  -0.00161   0.01786   0.01285
 116 6   C  1S         -0.07172   0.06308   0.01491   0.00864  -0.00350
 117        2S          0.17278   0.10589   0.06966   0.07118   0.00955
 118        3S          0.46963   0.19366   0.34003   0.17180  -0.16410
 119        4S         -0.10420  -1.14047   0.01097  -0.11202  -0.01961
 120        5PX        -0.01164  -0.16976  -0.00251   0.01502   0.02460
 121        5PY        -0.04698   0.11101  -0.05696   0.01623   0.05967
 122        5PZ         0.01637  -0.03683   0.04758  -0.04936   0.12219
 123        6PX        -0.24845   0.31804  -0.38442  -0.25084   0.01605
 124        6PY        -0.27637  -0.18829  -0.27636  -0.15188   0.09301
 125        6PZ         0.01420  -0.02462   0.03037  -0.03016   0.04215
 126        7PX         0.10998   0.23426   0.14760   0.10697  -0.09329
 127        7PY         0.07169   0.30849   0.05530   0.05035  -0.05212
 128        7PZ         0.00065  -0.00281   0.00348  -0.00693   0.00200
 129        8D 0       -0.00647  -0.00129  -0.00309  -0.00267  -0.00058
 130        8D+1       -0.00314   0.00009   0.00040   0.00156   0.00002
 131        8D-1       -0.00154   0.00104  -0.00311   0.00500  -0.00926
 132        8D+2        0.00004  -0.01318   0.00173   0.00266   0.00243
 133        8D-2        0.00936  -0.01139  -0.00416  -0.00493   0.00037
 134        9D 0        0.00838   0.00161   0.00430   0.00169  -0.00218
 135        9D+1        0.00107  -0.00227   0.00243  -0.00237  -0.00752
 136        9D-1       -0.00340   0.00182   0.00017  -0.00088   0.00300
[...]
 \HF=-493.5408445\S2=0.\S2-1=0.\S2A=0.\RMSD=9.954e-09\RMSF=2.205e-05\Ze
 roPoint=0.1351342\Thermal=0.1448937\Dipole=2.5040886,-1.0173372,-0.000
 0204\DipoleDeriv=0.4958976,-0.2306948,-0.0000091,0.3711245,-0.0282472,
 -0.0000048,-0.0000068,0.0000056,-0.0121571,-0.4367844,0.3572946,0.0000
 061,0.2957912,-0.1019244,-0.0000038,0.0000233,-0.0000073,-0.0589366,-1
 .2545183,0.0293495,0.0000194,0.0266576,0.2488746,0.0000009,0.0000233,0
 .0000018,0.0580949,-0.0267474,-0.0714972,-0.0000024,-0.1512078,0.18962
 38,0.0000015,-0.0000069,0.0000005,0.0840723,0.4981293,0.2240673,-0.000
 0063,-0.4235477,-0.0053054,0.0000053,-0.0000125,-0.0000034,-0.011757,-
 0.5036761,-0.3449631,0.0000016,-0.2222444,-0.0570481,0.0000048,0.00001
 21,0.0000021,-0.0384433,2.2512745,-0.0478606,-0.0000274,-0.0311048,0.1
 396075,-0.0000008,-0.000031,-0.0000006,0.2601902,-0.9216528,0.0244676,
 0.0000128,0.0160082,0.0802145,-0.0000002,0.0000165,-0.0000003,0.087153
 1,0.1017257,-0.0259245,0.0000006,-0.0220599,0.0726746,-0.0000004,0.000
 0015,0.0000003,0.1242114,0.0491699,-0.012663,0.0000014,0.0035556,0.113
 7859,-0.0000002,-0.0000007,-0.0000009,0.1511153,0.168191,0.0139379,0.0
 000006,-0.0325528,0.1226598,-0.0000004,0.0000007,0.0000023,0.1302017,0
 .0524728,0.0122462,0.0000013,0.0033595,0.108191,-0.0000005,-0.0000002,
 -0.0000025,0.1509859,1.5159788,0.1117065,-0.0000082,0.1824386,0.977718
 ,0.0000065,-0.0000233,0.0000123,0.1683566,-0.8815341,0.1103031,0.00000
 7,0.087819,-0.7715236,-0.0000065,0.0000084,0.0000053,-0.2724051,-0.221
 9602,-0.1455848,0.,-0.1852758,-0.275389,-0.000006,-0.0000114,-0.000021
 7,0.0587846,0.0565296,0.0001636,0.0617725,0.0256968,0.0610144,-0.03178
 51,0.0666511,-0.0437669,0.0107603,0.0565322,0.000167,-0.0617705,0.0256
 958,0.0610125,0.0317888,-0.0666442,0.0437735,0.0107598,0.000972,-0.004
 5153,0.0000003,0.0298465,0.0640609,0.0000008,0.,0.,0.0990129\Polar=182
 .8449166,-1.2515672,103.8166174,-0.0015617,0.0003531,58.4978546\Quadru
 pole=12.9639699,-2.2741474,-10.6898225,6.41208,-0.0003535,0.0000786\PG
 =C01 [X(C8H7N2O1)]\NImag=0\\0.68812442,-0.05914489,0.71360204,-0.00000
 915,0.00000725,0.13196986,-0.35262679,0.03763120,0.00000420,0.69371422
 ,-0.02386094,-0.12347451,-0.00000017,0.05016662,0.70572188,0.00000361,
 -0.00000105,-0.06639083,-0.00000873,0.00000609,0.13946689,-0.11255029,
 -0.08748396,0.00000011,-0.04600752,-0.01786793,0.00000105,0.51903329,-
 0.05290006,-0.28147839,-0.00000134,-0.06021177,0.02514132,0.00000113,0
 .00726553,0.67550732,0.00000046,-0.00000055,-0.05771153,0.00000022,0.0
 0000031,0.00909978,-0.00000602,0.00000470,0.12188047,-0.02435535,0.033
 01883,0.00000112,-0.16540298,0.09767541,0.00000350,0.00047010,-0.00184
 097,-0.00000016,0.57106165,0.06991094,0.02709048,-0.00000098,0.0442291
 5,-0.27812032,-0.00000407,-0.00386949,-0.04950195,-0.00000018,-0.00290
 956,0.68558903,0.00000128,-0.00000053,0.01026652,0.00000321,-0.0000048
 8,-0.06829509,-0.00000044,-0.00000038,-0.01160785,-0.00000604,0.000005
 55,0.15876628,0.04573081,0.01386642,-0.00000045,-0.03919213,0.01948508
 ,0.00000056,-0.10402588,0.04035940,0.00000098,-0.02951447,-0.06108401,
 0.00000024,0.70246141,-0.01799270,-0.05247544,-0.00000026,0.02892726,-
 0.01408932,-0.00000053,0.07521351,-0.28338045,-0.00000301,-0.02868676,
 0.03133620,0.00000088,0.06491305,0.69966800,-0.00000078,-0.00000089,0.
 01352620,0.00000089,-0.00000038,-0.00619672,0.00000136,-0.00000245,-0.
 05763762,0.00000044,0.00000140,0.00981583,-0.00000978,0.00000405,0.133
 26757,-0.04146325,-0.02750597,0.00000028,0.06102646,-0.01557906,-0.000
 00071,-0.04057726,0.06328635,0.00000149,-0.16645201,-0.05278230,0.0000
 0074,-0.36581805,-0.02576003,0.00000611,0.71505098,-0.01997042,-0.0123
 0534,0.00000031,0.01050906,-0.04818472,-0.00000067,0.02238058,0.021917
 24,-0.00000039,-0.10050622,-0.26431388,-0.00000042,0.03300543,-0.12344
 083,-0.00000129,-0.05099918,0.69471745,0.00000056,0.00000040,-0.006037
 50,-0.00000086,-0.00000034,0.00822711,0.00000100,-0.00000100,0.0093154
 4,0.00000085,-0.00000091,-0.07254307,0.00000659,0.00000001,-0.06699600
 ,-0.00001031,0.00000436,0.14352587,-0.07925713,-0.02892513,0.00000083,
 0.01714149,-0.01860632,-0.00000064,-0.14404549,0.00242722,0.00000115,-
 0.00391601,0.00208608,0.00000033,-0.07532503,0.03302368,0.00000134,0.0
 1775985,0.01730461,-0.00000012,1.62073267,-0.03136015,0.01381352,0.000
 00062,-0.00806541,-0.00554930,0.,0.00119381,-0.10018984,-0.00000038,-0
 .00032642,-0.00798749,-0.00000006,0.03537412,0.01111388,-0.00000046,0.
 00727328,-0.00712453,-0.00000018,-0.03334021,0.13053388,0.00000077,0.0
 0000052,-0.00741017,-0.00000008,0.00000008,0.00869919,0.00000135,-0.00
 000036,-0.04715288,0.00000004,-0.00000003,-0.00112161,0.00000134,-0.00
 000040,-0.00716587,-0.00000008,-0.00000044,0.00838211,-0.00002647,0.00
 000090,0.09502619,0.01932557,0.01655246,-0.00000009,-0.00892724,0.0063
 0345,0.00000038,-0.08426278,0.00140248,0.00000180,0.00383645,-0.001187
 33,-0.00000025,0.01816834,-0.01726642,-0.00000035,-0.00898788,-0.00553
 257,0.00000010,-1.35447796,0.02888928,0.00002318,1.41620430,0.00152682
 ,-0.00447204,-0.00000010,0.00153667,0.00119678,0.00000001,0.00266738,0
 .02422695,0.00000004,0.00005481,0.00176759,0.,-0.00238177,-0.00380922,
 0.,-0.00127346,0.00166170,0.00000002,0.02824981,-0.03779737,-0.0000004
 8,-0.03024151,0.01850337,-0.00000022,-0.00000033,0.00484185,0.00000009
 ,-0.00000005,-0.00215743,0.00000153,0.00000005,0.01327160,-0.00000005,
 0.,0.00065513,-0.00000026,0.00000022,0.00472958,0.00000010,0.00000014,
 -0.00205669,0.00002350,-0.00000049,-0.04308189,-0.00002470,0.00000051,
 0.02309886,-0.01354699,-0.02646826,0.00000006,-0.13329742,-0.12759910,
 0.00000028,-0.00381515,0.00125231,0.00000016,0.01241989,0.01298830,-0.
 00000003,-0.00040402,0.00068899,0.,-0.00153117,0.00365091,0.00000019,-
 0.00164399,-0.00170407,0.00000003,0.00005001,0.00035011,0.,0.14240991,
 0.00384630,0.00576883,-0.00000002,-0.12872738,-0.27124863,-0.00000031,
 0.00152648,0.00162416,-0.00000010,-0.01452430,-0.01712898,0.00000005,0
 .00087874,-0.00017386,0.,0.00347886,-0.00301626,-0.00000018,0.00025613
 ,0.00097709,0.,0.00025328,-0.00035654,0.,0.13600940,0.28226860,0.00000
 028,0.00000039,0.00481452,0.00000047,-0.00000021,-0.03999797,0.0000001
 5,-0.00000004,0.00663090,-0.00000054,-0.00000053,0.00332914,0.00000003
 ,0.,-0.00127311,0.00000024,-0.00000021,0.00669635,0.00000004,0.0000000
 3,0.00185718,0.,0.,-0.00063804,-0.00000050,0.00000044,0.02649205,-0.00
 153413,0.00315907,0.00000014,-0.00072311,0.00049937,-0.00000003,0.0089
 3510,0.01658797,0.00000003,-0.00538654,0.00132235,0.00000030,-0.140575
 72,-0.13358215,0.00000042,-0.00957148,-0.02574294,-0.00000002,0.003136
 28,0.00035582,-0.00000011,-0.00059195,0.00005635,0.00000002,0.00004277
 ,-0.00009485,-0.00000002,0.14465711,0.00393467,-0.00176512,-0.00000012
 ,-0.00013506,0.00071344,0.00000002,-0.01278759,-0.01679699,0.,0.001359
 56,0.00048890,-0.00000010,-0.13153790,-0.26550527,-0.00000010,0.003163
 52,0.00709114,-0.00000010,-0.00342945,0.00043932,0.00000010,0.00165740
 ,-0.00021073,-0.00000004,-0.00006184,0.00000079,0.,0.13826688,0.275184
 80,0.00000010,-0.00000007,0.00439711,-0.00000002,-0.00000001,-0.000995
 96,-0.00000017,-0.00000044,0.00318115,0.00000022,-0.00000015,0.0069536
 6,0.00000014,-0.00000026,-0.03665469,0.00000055,0.00000064,0.00678276,
 -0.00000013,0.00000004,-0.00393101,0.00000003,-0.00000001,0.00074330,-
 0.00000002,0.00000002,-0.00082159,-0.00000065,0.00000025,0.02401292,-0
 .00022944,-0.00067081,0.00000001,-0.00285279,-0.00321210,0.00000007,-0
 .00355598,-0.00092323,0.00000015,0.01488747,-0.01289050,-0.00000020,-0
 .01122606,0.02467402,0.00000036,-0.12560262,0.12447396,0.00000186,-0.0
 0150936,0.00135473,0.00000006,0.00010693,-0.00020114,0.,0.00068483,-0.
 00094509,-0.00000003,0.00112731,0.00003827,-0.00000006,0.12999870,-0.0
 0084260,0.00003017,0.,-0.00314266,-0.00273538,0.00000002,-0.00159051,0
 .00151066,0.00000003,0.01219301,-0.01889573,-0.00000030,-0.00371452,0.
 00607694,0.00000015,0.12507788,-0.27556116,-0.00000261,-0.00011722,0.0
 0120568,0.00000002,-0.00039181,-0.00042419,0.,0.00069452,-0.00072774,-
 0.00000003,0.00003340,0.00062791,-0.00000002,-0.13199628,0.28860599,0.
 ,0.00000005,-0.00131498,0.00000005,-0.00000003,0.00611249,0.00000024,-
 0.00000001,0.00677211,-0.00000003,-0.00000017,0.00542063,0.00000041,-0
 .00000064,0.00515341,0.00000152,-0.00000206,-0.04288073,0.00000008,-0.
 00000009,0.00177167,0.,0.00000002,-0.00062485,0.,0.,-0.00018181,-0.000
 00009,0.00000006,-0.00459593,-0.00000211,0.00000275,0.02860034,-0.1275
 5904,0.12610093,0.00000287,-0.00804500,0.02667638,0.00000054,0.0089449
 8,-0.01778070,-0.00000029,-0.00568738,-0.00108159,0.00000022,-0.001996
 08,-0.00312558,0.00000008,-0.00065432,-0.00045370,-0.00000003,0.003175
 39,-0.00041167,-0.00000011,-0.00067980,-0.00009548,0.00000002,0.001080
 52,-0.00002098,-0.00000009,0.00057023,-0.00066851,0.00000001,-0.000001
 06,0.00008512,0.,0.13067706,0.12429707,-0.27946388,-0.00000485,-0.0025
 6312,0.00566793,0.,0.01187381,-0.01635028,-0.00000042,-0.00101713,0.00
 073002,-0.00000006,-0.00393814,-0.00148961,0.,0.00013528,0.00065609,0.
 00000002,0.00308014,0.00036085,0.00000001,-0.00152913,-0.00016351,0.00
 000001,-0.00013659,0.00063624,0.00000006,0.00062329,-0.00051493,-0.000
 00002,0.00008152,-0.00001352,0.,-0.13069169,0.28968373,0.00000292,-0.0
 0000512,-0.03595709,0.00000028,-0.00000034,0.00636064,-0.00000002,0.00
 000020,0.00327042,0.00000015,-0.00000002,0.00689608,0.00000017,-0.0000
 0005,0.00437218,-0.00000013,-0.00000003,-0.00117593,-0.00000003,0.0000
 0006,-0.00420596,-0.00000002,-0.00000001,0.00081786,-0.00000009,0.0000
 0005,-0.00440767,0.00000002,0.,0.00133562,-0.00000002,0.,-0.00065022,-
 0.00000322,0.00000522,0.02384610,0.00046352,-0.00349771,-0.00000013,-0
 .00223722,0.01212358,-0.00000018,0.00526349,0.00025990,-0.00000009,-0.
 14593496,-0.02466510,0.00000299,-0.00025922,-0.00000165,-0.00000008,-0
 .02496962,-0.01215984,0.00000006,-0.00641850,0.00053355,0.00000013,0.0
 0247161,-0.00020910,-0.00000005,0.00108213,-0.00172826,0.00000003,0.00
 040954,-0.00001125,0.00000003,0.00045630,0.00198102,0.00000001,0.00130
 558,-0.00000308,0.00000002,0.50585239,0.00215677,-0.00386031,-0.000000
 17,0.02829561,0.00091911,-0.00000070,0.00271938,-0.00301192,-0.0000000
 9,-0.04374746,-0.09664953,-0.00000050,-0.00686534,-0.00624139,0.000000
 01,-0.02401668,0.01492833,0.00000099,-0.00327753,-0.00081472,0.0000000
 6,0.00223987,0.00020963,-0.00000004,0.00080485,-0.00013959,0.00000002,
 -0.00220960,0.00027043,0.00000001,-0.00129556,-0.00225896,0.00000009,0
 .00096887,0.00022946,0.00000002,-0.10704791,0.89041655,0.00000040,-0.0
 0000034,0.00773686,0.00000066,0.00000026,0.00643725,-0.00000040,-0.000
 00002,0.00101193,0.00000089,-0.00000100,-0.08691302,0.00000027,-0.0000
 0005,0.00657003,-0.00000008,-0.00000020,0.00832115,0.00000041,0.,-0.00
 192193,-0.00000026,0.,0.00039826,-0.00000008,0.00000003,-0.00340547,0.
 ,0.00000001,-0.00079113,-0.00000018,-0.00000003,-0.00345393,0.00000005
 ,0.00000003,-0.00080979,0.00000493,-0.00000999,0.21385966,-0.00139534,
 0.00303869,0.00000024,-0.00884726,-0.00521821,0.00000026,-0.00286717,0
 .00124337,0.00000009,-0.03818069,0.05565355,-0.00000135,0.00267233,0.0
 0071929,-0.00000003,-0.00381234,0.00121508,0.,0.00342981,0.00030695,-0
 .00000004,-0.00169004,-0.00006098,0.00000002,-0.00007250,0.00025457,-0
 .00000005,0.00000943,0.00008529,-0.00000004,-0.00216272,0.00170216,-0.
 00000003,-0.00099623,-0.00013164,-0.00000002,-0.18971071,0.22063843,-0
 .00000596,0.22144378,0.00081464,-0.00140934,-0.00000020,0.00226607,0.0
 0452092,-0.00000005,-0.00094371,0.00061455,0.00000003,0.05016238,-0.01
 809614,0.00000120,0.00129442,0.00184797,-0.00000009,-0.00596891,-0.007
 21892,-0.00000038,0.00084722,0.00074491,0.00000002,-0.00096036,-0.0002
 4461,0.,-0.00076953,0.00037155,0.00000006,0.00056870,-0.00004809,0.000
 00003,0.00054998,0.00227763,0.,0.00056216,-0.00000514,0.00000002,0.203
 53678,-0.62607238,0.00001256,-0.26239513,0.70631215,-0.00000013,0.0000
 0019,-0.00192932,-0.00000024,-0.00000025,0.00054326,0.00000021,-0.0000
 0007,-0.00033399,-0.00000081,0.00000097,0.02050864,-0.00000019,0.00000
 003,-0.00062672,0.00000021,0.00000022,-0.00007040,-0.00000025,-0.00000
 001,0.00018732,0.00000016,0.,-0.00002163,0.00000003,0.,0.00066785,-0.0
 0000002,0.,0.00034920,0.00000007,-0.00000001,-0.00059853,-0.00000004,0
 .,0.00007838,-0.00000545,0.00001359,-0.06312919,0.00000688,-0.00001454
 ,0.02203151,0.00056015,-0.00014148,-0.00000001,-0.00234332,-0.00041714
 ,0.00000004,-0.00069212,-0.00021029,0.00000002,-0.01644921,-0.02391515
 ,-0.00000091,-0.00058526,-0.00178585,0.00000003,-0.00441336,0.00216727
 ,0.00000013,0.00098076,-0.00017014,-0.00000002,-0.00047082,0.00006058,
 0.,-0.00097648,-0.00049603,-0.00000001,-0.00043970,0.00011191,0.,-0.00
 035743,-0.00000465,-0.00000002,-0.00007470,-0.00004760,0.,-0.13889796,
 -0.06207603,-0.00000052,0.01939193,0.01345239,-0.00000048,0.56750941,0
 .00022954,0.00015681,0.,-0.00153778,-0.00006981,0.00000011,-0.00047024
 ,-0.00020792,0.,0.00116392,0.00802241,-0.00000045,0.00002672,0.0011348
 0,0.00000002,0.00344721,0.00020098,-0.00000012,0.00054456,0.00006798,0
 .,-0.00025398,-0.00002689,0.,0.00002278,0.00006317,-0.00000002,0.00031
 424,0.00002118,0.,0.00071924,0.00025830,0.,-0.00002417,-0.00000551,0.,
 -0.05649868,-0.14318226,-0.00000074,-0.01139530,-0.05817855,-0.0000003
 0,-0.05838255,0.50072581,-0.00000004,0.00000007,-0.00133556,-0.0000002
 4,-0.00000003,-0.00144344,0.00000002,-0.00000003,0.00014944,0.00000033
 ,0.00000023,0.01600108,-0.00000007,0.00000002,-0.00065198,0.00000017,0
 .00000006,0.00025669,-0.00000002,0.,0.00021099,0.00000002,0.,-0.000014
 93,-0.00000002,-0.00000004,0.00113963,0.,0.,0.00006077,0.00000003,0.00
 000003,0.00035611,-0.00000002,0.,0.00020214,-0.00000189,-0.00000300,-0
 .08517682,0.00000007,0.00000152,0.02553839,0.00000057,-0.00000630,0.51
 574771,0.00007890,0.00017327,-0.00018001,-0.00095072,-0.00012476,-0.00
 052270,-0.00008465,-0.00008323,-0.00003456,-0.00040012,0.00043889,0.00
 266212,-0.00004294,0.00017116,-0.00020129,0.00033066,0.00014203,-0.000
 02496,0.00005546,0.00004799,0.00004542,-0.00001707,-0.00001960,-0.0000
 0209,-0.00123187,-0.00001423,-0.00042473,0.00000793,-0.00000455,0.0000
 1669,0.00014199,0.00003505,0.00005230,-0.00002017,-0.00001223,0.000013
 51,0.00541017,-0.00603676,-0.01805531,-0.00045017,-0.00269305,0.002208
 89,-0.05641444,0.02627781,0.04190747,0.05594091,-0.00040418,-0.0000580
 6,0.00002556,0.00026428,0.00023875,-0.00014443,0.00009764,0.00021824,-
 0.00004090,-0.00001271,0.00025885,0.00241908,0.00024065,-0.00005343,-0
 .00013976,-0.00027844,-0.00023171,0.00001375,-0.00012635,0.00007666,-0
 .00003341,0.00005157,-0.00002112,0.00001278,0.00014290,0.00033319,0.00
 003709,-0.00000500,-0.00000778,-0.00000058,0.00015570,0.00000426,0.000
 05768,-0.00000071,0.00002610,0.00004275,0.00935377,-0.01559910,-0.0227
 8186,-0.00382049,-0.00412123,0.00326469,0.02799316,-0.12178761,-0.1239
 2899,-0.03080738,0.13410874,0.00006709,0.00032115,0.00022353,0.0004401
 7,-0.00077434,0.00019855,0.00013507,0.00007671,-0.00007018,-0.00007209
 ,-0.00045323,-0.00004367,0.00010599,-0.00003070,0.00000702,-0.00022800
 ,0.00001917,0.00004943,-0.00012592,0.00008866,-0.00005528,0.00007873,-
 0.00003145,0.00001457,-0.00047665,0.00046255,-0.00023686,-0.00001267,-
 0.00000897,-0.00001390,0.00006441,0.00001575,0.00001103,-0.00003009,-0
 .00001568,-0.00000428,-0.00039294,0.00145639,0.00133125,-0.00028372,0.
 00152151,-0.00103489,0.04327103,-0.12113526,-0.21313323,-0.04716926,0.
 13169090,0.23200341,0.00007892,0.00017327,0.00017999,-0.00095053,-0.00
 012473,0.00052270,-0.00008467,-0.00008322,0.00003457,-0.00040014,0.000
 43886,-0.00266209,-0.00004290,0.00017115,0.00020128,0.00033060,0.00014
 200,0.00002496,0.00005550,0.00004799,-0.00004541,-0.00001709,-0.000019
 60,0.00000208,-0.00123181,-0.00001423,0.00042471,0.00000793,-0.0000045
 5,-0.00001670,0.00014198,0.00003505,-0.00005230,-0.00002017,-0.0000122
 3,-0.00001351,0.00541008,-0.00603685,0.01805521,-0.00045007,-0.0026934
 0,-0.00220885,-0.05641283,0.02627714,-0.04190399,0.00028912,-0.0030878
 4,0.00504237,0.05593823,-0.00040415,-0.00005807,-0.00002554,0.00026425
 ,0.00023876,0.00014445,0.00009760,0.00021825,0.00004090,-0.00001277,0.
 00025878,-0.00241901,0.00024068,-0.00005343,0.00013975,-0.00027849,-0.
 00023173,-0.00001375,-0.00012631,0.00007665,0.00003341,0.00005154,-0.0
 0002112,-0.00001278,0.00014287,0.00033317,-0.00003707,-0.00000500,-0.0
 0000778,0.00000058,0.00015570,0.00000425,-0.00005768,-0.00000071,0.000
 02610,-0.00004275,0.00935348,-0.01559939,0.02278151,-0.00382052,-0.004
 12178,-0.00326446,0.02799250,-0.12179830,0.12393570,-0.00308718,0.0107
 4136,-0.01494339,-0.03080665,0.13412051,-0.00006711,-0.00032117,0.0002
 2353,-0.00044010,0.00077433,0.00019855,-0.00013505,-0.00007668,-0.0000
 7017,0.00007217,0.00045325,-0.00004388,-0.00010596,0.00003069,0.000007
 03,0.00022795,-0.00001920,0.00004944,0.00012590,-0.00008865,-0.0000552
 9,-0.00007872,0.00003144,0.00001457,0.00047664,-0.00046251,-0.00023687
 ,0.00001267,0.00000897,-0.00001390,-0.00006441,-0.00001575,0.00001102,
 0.00003009,0.00001568,-0.00000429,0.00039339,-0.00145684,0.00133246,0.
 00028359,-0.00152177,-0.00103497,-0.04326756,0.12114231,-0.21313023,-0
 .00504190,0.01494447,-0.01993048,0.04716494,-0.13169842,0.23199987,0.0
 0015545,0.00012407,0.,0.00052186,-0.00031962,-0.00000001,-0.00007799,-
 0.00005107,-0.00000001,-0.00059570,-0.00268311,-0.00000009,-0.00002511
 ,-0.00030096,0.,-0.00064520,0.00037392,0.00000002,0.00012626,0.0000005
 5,0.,-0.00004060,0.00000012,0.,-0.00001866,0.00006160,0.,-0.00008099,0
 .00002318,0.,-0.00004808,-0.00003695,0.,-0.00001982,-0.00000854,0.,-0.
 01969662,0.00478595,-0.00000004,0.00368795,0.00236934,0.00000002,-0.30
 991464,0.06953955,-0.00000239,-0.00264299,0.00024342,-0.00041353,-0.00
 264215,0.00024316,0.00041348,0.33195703,0.00016334,0.00035864,0.000000
 01,0.00029302,-0.00088690,-0.00000002,-0.00002227,-0.00006094,0.,-0.00
 204364,-0.00484824,-0.00000009,-0.00016304,-0.00046554,0.00000001,-0.0
 0141986,0.00045617,0.00000004,0.00012907,0.00005283,0.,-0.00003822,-0.
 00001868,0.,-0.00000856,0.00041481,0.,-0.00014792,0.00001880,0.,-0.000
 06842,0.00001489,0.,-0.00003797,-0.00001015,0.,-0.03131950,0.00645603,
 -0.00000019,0.00198490,0.00282649,-0.00000003,0.07586909,-0.06539458,0
 .00000076,0.01559677,-0.00412610,0.00174021,0.01559784,-0.00412624,-0.
 00174014,-0.07436461,0.06933872,0.,0.00000001,0.00008699,0.00000004,-0
 .00000004,0.00013372,0.00000001,0.,0.00000098,0.,-0.00000014,0.0019552
 1,0.,-0.00000002,-0.00024613,-0.00000005,0.00000002,0.00015399,0.,0.,-
 0.00003272,0.,0.,0.00000990,0.,0.00000003,-0.00042825,0.,0.,0.00000163
 ,0.,0.,0.00009217,0.,0.,0.00003580,-0.00000079,0.00000014,-0.00139757,
 0.00000009,0.00000007,-0.00112490,-0.00000228,0.00000074,-0.04477676,0
 .02475041,-0.00543883,0.00068399,-0.02474998,0.00543856,0.00068362,0.0
 0000256,-0.00000056,0.04416832\\-0.00001353,0.00003312,0.00000067,0.00
 002111,-0.00002479,-0.00000112,-0.00002762,-0.00000323,-0.00000015,-0.
 00005994,0.00006645,-0.00000172,-0.00000539,-0.00000812,-0.00000096,0.
 00002448,-0.00002329,0.00000115,0.00001596,-0.00000149,0.00000046,-0.0
 0000196,-0.00000400,-0.00000020,0.00001674,-0.00003664,0.00000010,0.00
 000365,0.00000652,0.00000020,-0.00000838,0.00000460,-0.00000051,-0.000
 00055,0.00000351,-0.00000013,0.00006111,-0.00007668,0.00000777,-0.0000
 2472,0.00001089,-0.00000278,0.00001473,0.00000841,-0.00000097,-0.00001
 018,0.00002011,0.00000011,-0.00000991,0.00002197,-0.00000167,0.0000044
 0,0.00000266,-0.00000026\\\@


 What some people mistake for the high cost
 of living is really the cost of living high.
                              -- Doug Larson
 Job cpu time:       0 days  3 hours 42 minutes 42.4 seconds.
 Elapsed time:       0 days  0 hours 31 minutes 49.2 seconds.
 File lengths (MBytes):  RWF=    319 Int=      0 D2E=      0 Chk=     11 Scr=      1
 Normal termination of Gaussian 16 at Sun Aug  9 04:09:51 2020.
