 Entering Gaussian System, Link 0=/home/ubuntu/g16/g16
 Input=4-MeOC6H3_UB3LYP-aug-cc-pVDZ-Opt.gjf
 Output=4-MeOC6H3_UB3LYP-aug-cc-pVDZ-Opt.log
 Initial command:
 /home/ubuntu/g16/l1.exe "/home/ubuntu/g16/Gau-15572.inp" -scrdir="/home/ubuntu/g16/"
 Entering Link 1 = /home/ubuntu/g16/l1.exe PID=     15574.
  
 Copyright (c) 1988,1990,1992,1993,1995,1998,2003,2009,2016,
            Gaussian, Inc.  All Rights Reserved.
  
 This is part of the Gaussian(R) 16 program.  It is based on
 the Gaussian(R) 09 system (copyright 2009, Gaussian, Inc.),
 the Gaussian(R) 03 system (copyright 2003, Gaussian, Inc.),
 the Gaussian(R) 98 system (copyright 1998, Gaussian, Inc.),
 the Gaussian(R) 94 system (copyright 1995, Gaussian, Inc.),
 the Gaussian 92(TM) system (copyright 1992, Gaussian, Inc.),
 the Gaussian 90(TM) system (copyright 1990, Gaussian, Inc.),
 the Gaussian 88(TM) system (copyright 1988, Gaussian, Inc.),
 the Gaussian 86(TM) system (copyright 1986, Carnegie Mellon
 University), and the Gaussian 82(TM) system (copyright 1983,
 Carnegie Mellon University). Gaussian is a federally registered
 trademark of Gaussian, Inc.
  
 This software contains proprietary and confidential information,
 including trade secrets, belonging to Gaussian, Inc.
  
 This software is provided under written license and may be
 used, copied, transmitted, or stored only in accord with that
 written license.
  
 The following legend is applicable only to US Government
 contracts under FAR:
  
                    RESTRICTED RIGHTS LEGEND
  
 Use, reproduction and disclosure by the US Government is
 subject to restrictions as set forth in subparagraphs (a)
 and (c) of the Commercial Computer Software - Restricted
 Rights clause in FAR 52.227-19.
  
 Gaussian, Inc.
 340 Quinnipiac St., Bldg. 40, Wallingford CT 06492
  
  
 ---------------------------------------------------------------
 Warning -- This program may not be used in any manner that
 competes with the business of Gaussian, Inc. or will provide
 assistance to any competitor of Gaussian, Inc.  The licensee
 of this program is prohibited from giving any competitor of
 Gaussian, Inc. access to this program.  By using this program,
 the user acknowledges that Gaussian, Inc. is engaged in the
 business of creating and licensing software in the field of
 computational chemistry and represents and warrants to the
 licensee that it is not a competitor of Gaussian, Inc. and that
 it will not use this program in any manner prohibited above.
 ---------------------------------------------------------------
  

 Cite this work as:
 Gaussian 16, Revision A.03,
 M. J. Frisch, G. W. Trucks, H. B. Schlegel, G. E. Scuseria, 
 M. A. Robb, J. R. Cheeseman, G. Scalmani, V. Barone, 
 G. A. Petersson, H. Nakatsuji, X. Li, M. Caricato, A. V. Marenich, 
 J. Bloino, B. G. Janesko, R. Gomperts, B. Mennucci, H. P. Hratchian, 
 J. V. Ortiz, A. F. Izmaylov, J. L. Sonnenberg, D. Williams-Young, 
 F. Ding, F. Lipparini, F. Egidi, J. Goings, B. Peng, A. Petrone, 
 T. Henderson, D. Ranasinghe, V. G. Zakrzewski, J. Gao, N. Rega, 
 G. Zheng, W. Liang, M. Hada, M. Ehara, K. Toyota, R. Fukuda, 
 J. Hasegawa, M. Ishida, T. Nakajima, Y. Honda, O. Kitao, H. Nakai, 
 T. Vreven, K. Throssell, J. A. Montgomery, Jr., J. E. Peralta, 
 F. Ogliaro, M. J. Bearpark, J. J. Heyd, E. N. Brothers, K. N. Kudin, 
 V. N. Staroverov, T. A. Keith, R. Kobayashi, J. Normand, 
 K. Raghavachari, A. P. Rendell, J. C. Burant, S. S. Iyengar, 
 J. Tomasi, M. Cossi, J. M. Millam, M. Klene, C. Adamo, R. Cammi, 
 J. W. Ochterski, R. L. Martin, K. Morokuma, O. Farkas, 
 J. B. Foresman, and D. J. Fox, Gaussian, Inc., Wallingford CT, 2016.
 
 ******************************************
 Gaussian 16:  ES64L-G16RevA.03 25-Dec-2016
                 5-Nov-2016 
 ******************************************
 %chk=4-MeOC6H3_UB3LYP-aug-cc-pVDZ-Opt.chk
 %mem=500MW
 %nproc=7
 Will use up to    7 processors via shared memory.
 ----------------------------------------------------------------------
 #p opt=(maxcycles=777) freq ub3lyp/aug-cc-pVDZ pop=(Bonding,AllOrbital
 s,mk,no,nboread)
 ----------------------------------------------------------------------
 1/6=777,18=20,19=15,26=3,38=1/1,3;
 2/9=110,12=2,17=6,18=5,40=1/2;
 3/5=16,7=10,11=2,25=1,30=1,71=1,74=-5,116=2/1,2,3;
 4//1;
 5/5=2,38=5/2;
 6/7=2,8=2,9=2,10=2,15=8,20=1,22=-1,27=20,28=1,31=1,40=2,96=-1/1,2,7;
 7//1,2,3,16;
 1/6=777,18=20,19=15,26=3/3(2);
 2/9=110/2;
 99//99;
 2/9=110/2;
 3/5=16,7=10,11=2,25=1,30=1,71=1,74=-5,116=2/1,2,3;
 4/5=5,16=3,69=1/1;
 5/5=2,38=5/2;
 7//1,2,3,16;
 1/6=777,18=20,19=15,26=3/3(-5);
 2/9=110/2;
 6/7=2,8=2,9=2,10=2,15=8,19=2,20=1,22=-1,27=20,28=1,31=1,40=2,96=-1/1,2,7;
 99/9=1/99;
 Leave Link    1 at Sat Nov  5 14:02:26 2016, MaxMem=   524288000 cpu:               0.4 elap:               0.1
 (Enter /home/ubuntu/g16/l101.exe)
 ----------------------------
 4-MeOC6H3_UB3LYP-aug-cc-pVDZ
 ----------------------------
 Symbolic Z-matrix:
 Charge =  0 Multiplicity = 1
 C                    -1.33195  -0.35003  -0.06043 
 C                    -0.78369   0.77668  -0.02309 
 C                     0.56057   1.07381  -0.10712 
 C                     1.32343  -0.11968  -0.25106 
 O                     2.67349   0.08125  -0.34215 
 C                     3.5271   -1.04963  -0.476 
 C                     0.71488  -1.39976  -0.29428 
 C                    -0.68463  -1.56851  -0.19671 
 H                     1.04353   2.04768  -0.07326 
 H                     4.54459  -0.65018  -0.52774 
 H                     3.3075   -1.60882  -1.39892 
 H                     3.43814  -1.72041   0.39281 
 H                     1.33025  -2.28995  -0.40485 
 H                    -1.15004  -2.55184  -0.23161 
 
 ITRead=  0  0  0  0  0  0  0  0  0  0  0  0  0  0
 MicOpt= -1 -1 -1 -1 -1 -1 -1 -1 -1 -1 -1 -1 -1 -1
 NAtoms=     14 NQM=       14 NQMF=       0 NMMI=      0 NMMIF=      0
                NMic=       0 NMicF=      0.
                    Isotopes and Nuclear Properties:
 (Nuclear quadrupole moments (NQMom) in fm**2, nuclear magnetic moments (NMagM)
  in nuclear magnetons)

  Atom         1           2           3           4           5           6           7           8           9          10
 IAtWgt=          12          12          12          12          16          12          12          12           1           1
 AtmWgt=  12.0000000  12.0000000  12.0000000  12.0000000  15.9949146  12.0000000  12.0000000  12.0000000   1.0078250   1.0078250
 NucSpn=           0           0           0           0           0           0           0           0           1           1
 AtZEff=  -0.0000000  -0.0000000  -0.0000000  -0.0000000  -0.0000000  -0.0000000  -0.0000000  -0.0000000  -0.0000000  -0.0000000
 NQMom=    0.0000000   0.0000000   0.0000000   0.0000000   0.0000000   0.0000000   0.0000000   0.0000000   0.0000000   0.0000000
 NMagM=    0.0000000   0.0000000   0.0000000   0.0000000   0.0000000   0.0000000   0.0000000   0.0000000   2.7928460   2.7928460
 AtZNuc=   6.0000000   6.0000000   6.0000000   6.0000000   8.0000000   6.0000000   6.0000000   6.0000000   1.0000000   1.0000000

  Atom        11          12          13          14
 IAtWgt=           1           1           1           1
 AtmWgt=   1.0078250   1.0078250   1.0078250   1.0078250
 NucSpn=           1           1           1           1
 AtZEff=  -0.0000000  -0.0000000  -0.0000000  -0.0000000
 NQMom=    0.0000000   0.0000000   0.0000000   0.0000000
 NMagM=    2.7928460   2.7928460   2.7928460   2.7928460
 AtZNuc=   1.0000000   1.0000000   1.0000000   1.0000000
 Leave Link  101 at Sat Nov  5 14:02:26 2016, MaxMem=   524288000 cpu:               1.3 elap:               0.2
 (Enter /home/ubuntu/g16/l103.exe)

 GradGradGradGradGradGradGradGradGradGradGradGradGradGradGradGradGradGrad
 Berny optimization.
 Initialization pass.
                           ----------------------------
                           !    Initial Parameters    !
                           ! (Angstroms and Degrees)  !
 --------------------------                            --------------------------
 ! Name  Definition              Value          Derivative Info.                !
 --------------------------------------------------------------------------------
 ! R1    R(1,2)                  1.2536         estimate D2E/DX2                !
 ! R2    R(1,8)                  1.3865         estimate D2E/DX2                !
 ! R3    R(2,3)                  1.3793         estimate D2E/DX2                !
 ! R4    R(3,4)                  1.4238         estimate D2E/DX2                !
 ! R5    R(3,9)                  1.0876         estimate D2E/DX2                !
 ! R6    R(4,5)                  1.368          estimate D2E/DX2                !
 ! R7    R(4,7)                  1.418          estimate D2E/DX2                !
 ! R8    R(5,6)                  1.4232         estimate D2E/DX2                !
 ! R9    R(6,10)                 1.0943         estimate D2E/DX2                !
 ! R10   R(6,11)                 1.1012         estimate D2E/DX2                !
 ! R11   R(6,12)                 1.1012         estimate D2E/DX2                !
 ! R12   R(7,8)                  1.413          estimate D2E/DX2                !
 ! R13   R(7,13)                 1.0878         estimate D2E/DX2                !
 ! R14   R(8,14)                 1.0885         estimate D2E/DX2                !
 ! A1    A(2,1,8)              126.0598         estimate D2E/DX2                !
 ! A2    A(1,2,3)              128.1749         estimate D2E/DX2                !
 ! A3    A(2,3,4)              110.3517         estimate D2E/DX2                !
 ! A4    A(2,3,9)              128.5946         estimate D2E/DX2                !
 ! A5    A(4,3,9)              121.0535         estimate D2E/DX2                !
 ! A6    A(3,4,5)              114.3556         estimate D2E/DX2                !
 ! A7    A(3,4,7)              121.9958         estimate D2E/DX2                !
 ! A8    A(5,4,7)              123.6486         estimate D2E/DX2                !
 ! A9    A(4,5,6)              118.7825         estimate D2E/DX2                !
 ! A10   A(5,6,10)             105.7879         estimate D2E/DX2                !
 ! A11   A(5,6,11)             111.2667         estimate D2E/DX2                !
 ! A12   A(5,6,12)             111.184          estimate D2E/DX2                !
 ! A13   A(10,6,11)            109.3382         estimate D2E/DX2                !
 ! A14   A(10,6,12)            109.5578         estimate D2E/DX2                !
 ! A15   A(11,6,12)            109.6207         estimate D2E/DX2                !
 ! A16   A(4,7,8)              122.0562         estimate D2E/DX2                !
 ! A17   A(4,7,13)             119.9371         estimate D2E/DX2                !
 ! A18   A(8,7,13)             118.0067         estimate D2E/DX2                !
 ! A19   A(1,8,7)              111.3616         estimate D2E/DX2                !
 ! A20   A(1,8,14)             126.6888         estimate D2E/DX2                !
 ! A21   A(7,8,14)             121.9494         estimate D2E/DX2                !
 ! D1    D(8,1,2,3)              0.0586         estimate D2E/DX2                !
 ! D2    D(2,1,8,7)             -0.0562         estimate D2E/DX2                !
 ! D3    D(2,1,8,14)          -179.9151         estimate D2E/DX2                !
 ! D4    D(1,2,3,4)             -0.0322         estimate D2E/DX2                !
 ! D5    D(1,2,3,9)           -179.8462         estimate D2E/DX2                !
 ! D6    D(2,3,4,5)           -179.9913         estimate D2E/DX2                !
 ! D7    D(2,3,4,7)              0.0146         estimate D2E/DX2                !
 ! D8    D(9,3,4,5)             -0.161          estimate D2E/DX2                !
 ! D9    D(9,3,4,7)            179.8449         estimate D2E/DX2                !
 ! D10   D(3,4,5,6)            179.4181         estimate D2E/DX2                !
 ! D11   D(7,4,5,6)             -0.588          estimate D2E/DX2                !
 ! D12   D(3,4,7,8)             -0.0227         estimate D2E/DX2                !
 ! D13   D(3,4,7,13)          -179.9756         estimate D2E/DX2                !
 ! D14   D(5,4,7,8)            179.9837         estimate D2E/DX2                !
 ! D15   D(5,4,7,13)             0.0309         estimate D2E/DX2                !
 ! D16   D(4,5,6,10)          -179.8984         estimate D2E/DX2                !
 ! D17   D(4,5,6,11)            61.4606         estimate D2E/DX2                !
 ! D18   D(4,5,6,12)           -61.0384         estimate D2E/DX2                !
 ! D19   D(4,7,8,1)              0.0385         estimate D2E/DX2                !
 ! D20   D(4,7,8,14)           179.9051         estimate D2E/DX2                !
 ! D21   D(13,7,8,1)           179.9922         estimate D2E/DX2                !
 ! D22   D(13,7,8,14)           -0.1411         estimate D2E/DX2                !
 --------------------------------------------------------------------------------
 Trust Radius=3.00D-01 FncErr=1.00D-07 GrdErr=1.00D-06 EigMax=2.50D+02 EigMin=1.00D-04
 Number of steps in this run=    100 maximum allowed number of steps=    100.
 GradGradGradGradGradGradGradGradGradGradGradGradGradGradGradGradGradGrad

 Leave Link  103 at Sat Nov  5 14:02:26 2016, MaxMem=   524288000 cpu:               0.0 elap:               0.0
 (Enter /home/ubuntu/g16/l202.exe)
                          Input orientation:                          
 ---------------------------------------------------------------------
 Center     Atomic      Atomic             Coordinates (Angstroms)
 Number     Number       Type             X           Y           Z
 ---------------------------------------------------------------------
      1          6           0       -1.331950   -0.350030   -0.060430
      2          6           0       -0.783690    0.776680   -0.023090
      3          6           0        0.560570    1.073810   -0.107120
      4          6           0        1.323430   -0.119680   -0.251060
      5          8           0        2.673490    0.081250   -0.342150
      6          6           0        3.527100   -1.049630   -0.476000
      7          6           0        0.714880   -1.399760   -0.294280
      8          6           0       -0.684630   -1.568510   -0.196710
      9          1           0        1.043530    2.047680   -0.073260
     10          1           0        4.544590   -0.650180   -0.527740
     11          1           0        3.307500   -1.608820   -1.398920
     12          1           0        3.438140   -1.720410    0.392810
     13          1           0        1.330250   -2.289950   -0.404850
     14          1           0       -1.150040   -2.551840   -0.231610
 ---------------------------------------------------------------------
                    Distance matrix (angstroms):
                    1          2          3          4          5
     1  C    0.000000
     2  C    1.253578   0.000000
     3  C    2.368783   1.379269   0.000000
     4  C    2.672161   2.301171   1.423760   0.000000
     5  O    4.038430   3.540835   2.346241   1.367966   0.000000
     6  C    4.926713   4.703557   3.666793   2.402408   1.423185
     7  C    2.312170   2.656341   2.485435   1.418029   2.455979
     8  C    1.386466   2.353693   2.922397   2.476765   3.744306
     9  H    3.375216   2.226363   1.087575   2.192580   2.568252
    10  H    5.902727   5.539058   4.361362   3.276256   2.017535
    11  H    4.990051   4.931668   4.051034   2.733433   2.091666
    12  H    4.983686   4.922629   4.042030   2.729268   2.090654
    13  H    3.311982   3.744156   3.463514   2.175723   2.725952
    14  H    2.215933   3.355106   4.010863   3.468982   4.643788
                    6          7          8          9         10
     6  C    0.000000
     7  C    2.839753   0.000000
     8  C    4.252753   1.413020   0.000000
     9  H    3.990445   3.470116   4.009814   0.000000
    10  H    1.094314   3.909354   5.319554   4.443245   0.000000
    11  H    1.101226   2.825883   4.169417   4.500325   1.791183
    12  H    1.101222   2.826845   4.167474   4.488862   1.793610
    13  H    2.523808   1.087816   2.150242   4.359724   3.610530
    14  H    4.918536   2.192976   1.088468   5.098275   6.011058
                   11         12         13         14
    11  H    0.000000
    12  H    1.799949   0.000000
    13  H    2.315520   2.324616   0.000000
    14  H    4.703356   4.704527   2.500087   0.000000
 Stoichiometry    C7H6O
 Framework group  C1[X(C7H6O)]
 Deg. of freedom    36
 Full point group                 C1      NOp   1
 Largest Abelian subgroup         C1      NOp   1
 Largest concise Abelian subgroup C1      NOp   1
                         Standard orientation:                         
 ---------------------------------------------------------------------
 Center     Atomic      Atomic             Coordinates (Angstroms)
 Number     Number       Type             X           Y           Z
 ---------------------------------------------------------------------
      1          6           0        2.294743    0.170326    0.002040
      2          6           0        1.857417   -1.004495    0.002492
      3          6           0        0.543862   -1.425150    0.000003
      4          6           0       -0.334820   -0.304881   -0.002646
      5          8           0       -1.663562   -0.630104   -0.005043
      6          6           0       -2.625714    0.418524    0.004867
      7          6           0        0.147740    1.028514   -0.002867
      8          6           0        1.529048    1.326179    0.000002
      9          1           0        0.156986   -2.441585    0.002657
     10          1           0       -3.602926   -0.073995    0.002673
     11          1           0       -2.534846    1.052460   -0.890994
     12          1           0       -2.528006    1.039712    0.908896
     13          1           0       -0.553927    1.859780   -0.004526
     14          1           0        1.897552    2.350368   -0.001702
 ---------------------------------------------------------------------
 Rotational constants (GHZ):           5.1077098           1.7076905           1.2904831
 Leave Link  202 at Sat Nov  5 14:02:26 2016, MaxMem=   524288000 cpu:               0.0 elap:               0.0
 (Enter /home/ubuntu/g16/l301.exe)
 Standard basis: Aug-CC-pVDZ (5D, 7F)
 Ernie: Thresh=  0.10000D-02 Tol=  0.10000D-05 Strict=F.
 Ernie:  16 primitive shells out of 242 were deleted.
 There are   254 symmetry adapted cartesian basis functions of A   symmetry.
 There are   238 symmetry adapted basis functions of A   symmetry.
   238 basis functions,   410 primitive gaussians,   254 cartesian basis functions
    28 alpha electrons       28 beta electrons
       nuclear repulsion energy       326.0695330758 Hartrees.
 IExCor=  402 DFT=T Ex+Corr=B3LYP ExCW=0 ScaHFX=  0.200000
 ScaDFX=  0.800000  0.720000  1.000000  0.810000 ScalE2=  1.000000  1.000000
 IRadAn=      5 IRanWt=     -1 IRanGd=            0 ICorTp=0 IEmpDi=  4
 NAtoms=   14 NActive=   14 NUniq=   14 SFac= 1.00D+00 NAtFMM=   60 NAOKFM=F Big=F
 Integral buffers will be    131072 words long.
 Raffenetti 2 integral format.
 Two-electron integral symmetry is turned on.
 Leave Link  301 at Sat Nov  5 14:02:26 2016, MaxMem=   524288000 cpu:               0.2 elap:               0.0
 (Enter /home/ubuntu/g16/l302.exe)
 NPDir=0 NMtPBC=     1 NCelOv=     1 NCel=       1 NClECP=     1 NCelD=      1
         NCelK=      1 NCelE2=     1 NClLst=     1 CellRange=     0.0.
 One-electron integrals computed using PRISM.
 One-electron integral symmetry used in STVInt
 NBasis=   238 RedAO= T EigKep=  3.83D-06  NBF=   238
 NBsUse=   238 1.00D-06 EigRej= -1.00D+00 NBFU=   238
 Precomputing XC quadrature grid using
 IXCGrd= 4 IRadAn=           5 IRanWt=          -1 IRanGd=           0 AccXCQ= 0.00D+00.
 Generated NRdTot=       0 NPtTot=           0 NUsed=           0 NTot=          32
 NSgBfM=   254   254   254   254   254 MxSgAt=    14 MxSgA2=    14.
 Leave Link  302 at Sat Nov  5 14:02:26 2016, MaxMem=   524288000 cpu:               2.0 elap:               0.3
 (Enter /home/ubuntu/g16/l303.exe)
 DipDrv:  MaxL=1.
 Leave Link  303 at Sat Nov  5 14:02:26 2016, MaxMem=   524288000 cpu:               0.3 elap:               0.0
 (Enter /home/ubuntu/g16/l401.exe)
 ExpMin= 2.97D-02 ExpMax= 1.17D+04 ExpMxC= 4.01D+02 IAcc=3 IRadAn=         5 AccDes= 0.00D+00
 Harris functional with IExCor=  402 and IRadAn=       5 diagonalized for initial guess.
 HarFok:  IExCor=  402 AccDes= 0.00D+00 IRadAn=         5 IDoV= 1 UseB2=F ITyADJ=14
 ICtDFT=  3500011 ScaDFX=  1.000000  1.000000  1.000000  1.000000
 FoFCou: FMM=F IPFlag=           0 FMFlag=      100000 FMFlg1=           0
         NFxFlg=           0 DoJE=T BraDBF=F KetDBF=T FulRan=T
         wScrn=  0.000000 ICntrl=       500 IOpCl=  0 I1Cent=   200000004 NGrid=           0
         NMat0=    1 NMatS0=      1 NMatT0=    0 NMatD0=    1 NMtDS0=    0 NMtDT0=    0
 Petite list used in FoFCou.
 Harris En= -345.477286682808    
 JPrj=0 DoOrth=F DoCkMO=F.
 Initial guess <Sx>= 0.0000 <Sy>= 0.0000 <Sz>= 0.0000 <S**2>=-0.0000 S=-0.0000
 Leave Link  401 at Sat Nov  5 14:02:28 2016, MaxMem=   524288000 cpu:              14.2 elap:               2.0
 (Enter /home/ubuntu/g16/l502.exe)
 Integral symmetry usage will be decided dynamically.
 UHF open shell SCF:
 Using DIIS extrapolation, IDIIS=  1040.
 NGot=   524288000 LenX=   524154720 LenY=   524089763
 Requested convergence on RMS density matrix=1.00D-08 within 128 cycles.
 Requested convergence on MAX density matrix=1.00D-06.
 Requested convergence on             energy=1.00D-06.
 No special actions if energy rises.
 Fock matrices will be formed incrementally for  20 cycles.

 Cycle   1  Pass 1  IDiag  1:
 FoFJK:  IHMeth= 1 ICntrl=       0 DoSepK=F KAlg= 0 I1Cent=           0 FoldK=F
 IRaf= 990000000 NMat=       1 IRICut=       1 DoRegI=T DoRafI=F ISym2E= 0 IDoP0=0 IntGTp=1.
 FoFCou: FMM=F IPFlag=           0 FMFlag=      100000 FMFlg1=           0
         NFxFlg=           0 DoJE=F BraDBF=F KetDBF=F FulRan=T
         wScrn=  0.000000 ICntrl=         0 IOpCl=  1 I1Cent=           0 NGrid=           0
         NMat0=    1 NMatS0=      1 NMatT0=    0 NMatD0=    1 NMtDS0=    0 NMtDT0=    0
 Symmetry not used in FoFCou.
 E= -345.312942417934    
 DIIS: error= 1.93D-02 at cycle   1 NSaved=   1.
 NSaved= 1 IEnMin= 1 EnMin= -345.312942417934     IErMin= 1 ErrMin= 1.93D-02
 ErrMax= 1.93D-02  0.00D+00 EMaxC= 1.00D-01 BMatC= 5.63D-01 BMatP= 5.63D-01
 IDIUse=3 WtCom= 8.07D-01 WtEn= 1.93D-01
 Coeff-Com:  0.100D+01
 Coeff-En:   0.100D+01
 Coeff:      0.100D+01
 Gap=     0.155 Goal=   None    Shift=    0.000
 Gap=     0.155 Goal=   None    Shift=    0.000
 GapD=    0.155 DampG=1.000 DampE=0.500 DampFc=0.5000 IDamp=-1.
 Damping current iteration by 5.00D-01
 RMSDP=2.77D-02 MaxDP=8.84D-01              OVMax= 1.86D-01

 Cycle   2  Pass 1  IDiag  1:
 RMSU=  7.25D-03    CP:  8.42D-01
 E= -345.384859385180     Delta-E=       -0.071916967246 Rises=F Damp=T
 DIIS: error= 4.24D-03 at cycle   2 NSaved=   2.
 NSaved= 2 IEnMin= 2 EnMin= -345.384859385180     IErMin= 2 ErrMin= 4.24D-03
 ErrMax= 4.24D-03  0.00D+00 EMaxC= 1.00D-01 BMatC= 2.72D-02 BMatP= 5.63D-01
 IDIUse=3 WtCom= 9.58D-01 WtEn= 4.24D-02
 Coeff-Com:  0.282D-01 0.972D+00
 Coeff-En:   0.630D-01 0.937D+00
 Coeff:      0.297D-01 0.970D+00
 Gap=     0.226 Goal=   None    Shift=    0.000
 Gap=     0.226 Goal=   None    Shift=    0.000
 RMSDP=1.12D-02 MaxDP=4.66D-01 DE=-7.19D-02 OVMax= 1.16D-01

 Cycle   3  Pass 1  IDiag  1:
 RMSU=  3.98D-03    CP:  7.03D-01  1.27D+00
 E= -345.465817500587     Delta-E=       -0.080958115407 Rises=F Damp=F
 DIIS: error= 3.92D-03 at cycle   3 NSaved=   3.
 NSaved= 3 IEnMin= 3 EnMin= -345.465817500587     IErMin= 3 ErrMin= 3.92D-03
 ErrMax= 3.92D-03  0.00D+00 EMaxC= 1.00D-01 BMatC= 1.97D-02 BMatP= 2.72D-02
 IDIUse=3 WtCom= 9.61D-01 WtEn= 3.92D-02
 Coeff-Com: -0.282D-01 0.455D+00 0.573D+00
 Coeff-En:   0.000D+00 0.000D+00 0.100D+01
 Coeff:     -0.271D-01 0.437D+00 0.590D+00
 Gap=     0.155 Goal=   None    Shift=    0.000
 Gap=     0.155 Goal=   None    Shift=    0.000
 RMSDP=1.48D-03 MaxDP=8.43D-02 DE=-8.10D-02 OVMax= 6.27D-02

 Cycle   4  Pass 1  IDiag  1:
 RMSU=  1.11D-03    CP:  7.06D-01  1.28D+00  7.62D-01
 E= -345.465187365848     Delta-E=        0.000630134739 Rises=F Damp=F
 DIIS: error= 3.80D-03 at cycle   4 NSaved=   4.
 NSaved= 4 IEnMin= 3 EnMin= -345.465817500587     IErMin= 4 ErrMin= 3.80D-03
 ErrMax= 3.80D-03  0.00D+00 EMaxC= 1.00D-01 BMatC= 2.14D-02 BMatP= 1.97D-02
 IDIUse=3 WtCom= 9.62D-01 WtEn= 3.80D-02
 Coeff-Com: -0.289D-01 0.189D+00 0.485D+00 0.355D+00
 Coeff-En:   0.000D+00 0.000D+00 0.521D+00 0.479D+00
 Coeff:     -0.278D-01 0.182D+00 0.486D+00 0.359D+00
 Gap=     0.151 Goal=   None    Shift=    0.000
 Gap=     0.151 Goal=   None    Shift=    0.000
 RMSDP=6.30D-04 MaxDP=2.80D-02 DE= 6.30D-04 OVMax= 4.34D-02

 Cycle   5  Pass 1  IDiag  1:
 RMSU=  4.48D-04    CP:  7.05D-01  1.28D+00  7.80D-01  6.16D-01
 E= -345.471019370077     Delta-E=       -0.005832004229 Rises=F Damp=F
 DIIS: error= 7.42D-04 at cycle   5 NSaved=   5.
 NSaved= 5 IEnMin= 5 EnMin= -345.471019370077     IErMin= 5 ErrMin= 7.42D-04
 ErrMax= 7.42D-04  0.00D+00 EMaxC= 1.00D-01 BMatC= 9.21D-04 BMatP= 1.97D-02
 IDIUse=3 WtCom= 9.93D-01 WtEn= 7.42D-03
 Coeff-Com: -0.150D-01 0.657D-01 0.236D+00 0.224D+00 0.489D+00
 Coeff-En:   0.000D+00 0.000D+00 0.000D+00 0.000D+00 0.100D+01
 Coeff:     -0.149D-01 0.652D-01 0.235D+00 0.223D+00 0.492D+00
 Gap=     0.149 Goal=   None    Shift=    0.000
 Gap=     0.149 Goal=   None    Shift=    0.000
 RMSDP=2.44D-04 MaxDP=1.20D-02 DE=-5.83D-03 OVMax= 8.70D-03

 Cycle   6  Pass 1  IDiag  1:
 RMSU=  1.61D-04    CP:  7.05D-01  1.28D+00  8.05D-01  5.77D-01  6.71D-01
 E= -345.471230731049     Delta-E=       -0.000211360972 Rises=F Damp=F
 DIIS: error= 3.38D-04 at cycle   6 NSaved=   6.
 NSaved= 6 IEnMin= 6 EnMin= -345.471230731049     IErMin= 6 ErrMin= 3.38D-04
 ErrMax= 3.38D-04  0.00D+00 EMaxC= 1.00D-01 BMatC= 1.52D-04 BMatP= 9.21D-04
 IDIUse=3 WtCom= 9.97D-01 WtEn= 3.38D-03
 Coeff-Com: -0.468D-02 0.972D-02 0.663D-01 0.820D-01 0.325D+00 0.522D+00
 Coeff-En:   0.000D+00 0.000D+00 0.000D+00 0.000D+00 0.162D+00 0.838D+00
 Coeff:     -0.467D-02 0.969D-02 0.660D-01 0.817D-01 0.324D+00 0.523D+00
 Gap=     0.150 Goal=   None    Shift=    0.000
 Gap=     0.150 Goal=   None    Shift=    0.000
 RMSDP=7.39D-05 MaxDP=3.57D-03 DE=-2.11D-04 OVMax= 2.73D-03

 Cycle   7  Pass 1  IDiag  1:
 RMSU=  3.49D-05    CP:  7.04D-01  1.28D+00  8.00D-01  5.92D-01  7.11D-01
                    CP:  6.63D-01
 E= -345.471270244673     Delta-E=       -0.000039513625 Rises=F Damp=F
 DIIS: error= 6.94D-05 at cycle   7 NSaved=   7.
 NSaved= 7 IEnMin= 7 EnMin= -345.471270244673     IErMin= 7 ErrMin= 6.94D-05
 ErrMax= 6.94D-05  0.00D+00 EMaxC= 1.00D-01 BMatC= 7.81D-06 BMatP= 1.52D-04
 IDIUse=1 WtCom= 1.00D+00 WtEn= 0.00D+00
 Coeff-Com: -0.178D-02 0.141D-02 0.235D-01 0.332D-01 0.156D+00 0.296D+00
 Coeff-Com:  0.492D+00
 Coeff:     -0.178D-02 0.141D-02 0.235D-01 0.332D-01 0.156D+00 0.296D+00
 Coeff:      0.492D+00
 Gap=     0.150 Goal=   None    Shift=    0.000
 Gap=     0.150 Goal=   None    Shift=    0.000
 RMSDP=1.41D-05 MaxDP=6.18D-04 DE=-3.95D-05 OVMax= 5.04D-04

 Cycle   8  Pass 1  IDiag  1:
 RMSU=  1.12D-05    CP:  7.04D-01  1.28D+00  8.00D-01  5.92D-01  7.13D-01
                    CP:  6.80D-01  8.12D-01
 E= -345.471272117602     Delta-E=       -0.000001872929 Rises=F Damp=F
 DIIS: error= 1.09D-05 at cycle   8 NSaved=   8.
 NSaved= 8 IEnMin= 8 EnMin= -345.471272117602     IErMin= 8 ErrMin= 1.09D-05
 ErrMax= 1.09D-05  0.00D+00 EMaxC= 1.00D-01 BMatC= 2.33D-07 BMatP= 7.81D-06
 IDIUse=1 WtCom= 1.00D+00 WtEn= 0.00D+00
 Coeff-Com: -0.217D-03-0.478D-03 0.346D-02 0.555D-02 0.329D-01 0.707D-01
 Coeff-Com:  0.192D+00 0.696D+00
 Coeff:     -0.217D-03-0.478D-03 0.346D-02 0.555D-02 0.329D-01 0.707D-01
 Coeff:      0.192D+00 0.696D+00
 Gap=     0.150 Goal=   None    Shift=    0.000
 Gap=     0.150 Goal=   None    Shift=    0.000
 RMSDP=3.75D-06 MaxDP=1.54D-04 DE=-1.87D-06 OVMax= 1.29D-04

 Cycle   9  Pass 1  IDiag  1:
 RMSU=  2.72D-06    CP:  7.04D-01  1.28D+00  8.00D-01  5.92D-01  7.13D-01
                    CP:  6.79D-01  8.30D-01  7.91D-01
 E= -345.471272168866     Delta-E=       -0.000000051264 Rises=F Damp=F
 DIIS: error= 5.00D-06 at cycle   9 NSaved=   9.
 NSaved= 9 IEnMin= 9 EnMin= -345.471272168866     IErMin= 9 ErrMin= 5.00D-06
 ErrMax= 5.00D-06  0.00D+00 EMaxC= 1.00D-01 BMatC= 4.22D-08 BMatP= 2.33D-07
 IDIUse=1 WtCom= 1.00D+00 WtEn= 0.00D+00
 Coeff-Com:  0.938D-05-0.323D-03 0.333D-03 0.761D-03 0.738D-02 0.191D-01
 Coeff-Com:  0.711D-01 0.379D+00 0.523D+00
 Coeff:      0.938D-05-0.323D-03 0.333D-03 0.761D-03 0.738D-02 0.191D-01
 Coeff:      0.711D-01 0.379D+00 0.523D+00
 Gap=     0.150 Goal=   None    Shift=    0.000
 Gap=     0.150 Goal=   None    Shift=    0.000
 RMSDP=1.40D-06 MaxDP=6.89D-05 DE=-5.13D-08 OVMax= 4.28D-05

 Cycle  10  Pass 1  IDiag  1:
 RMSU=  1.15D-06    CP:  7.04D-01  1.28D+00  8.00D-01  5.92D-01  7.13D-01
                    CP:  6.79D-01  8.23D-01  8.29D-01  7.99D-01
 E= -345.471272179470     Delta-E=       -0.000000010604 Rises=F Damp=F
 DIIS: error= 1.92D-06 at cycle  10 NSaved=  10.
 NSaved=10 IEnMin=10 EnMin= -345.471272179470     IErMin=10 ErrMin= 1.92D-06
 ErrMax= 1.92D-06  0.00D+00 EMaxC= 1.00D-01 BMatC= 3.78D-09 BMatP= 4.22D-08
 IDIUse=1 WtCom= 1.00D+00 WtEn= 0.00D+00
 Coeff-Com:  0.382D-04-0.803D-04-0.325D-03-0.459D-03-0.141D-02-0.139D-02
 Coeff-Com:  0.357D-02 0.751D-01 0.257D+00 0.667D+00
 Coeff:      0.382D-04-0.803D-04-0.325D-03-0.459D-03-0.141D-02-0.139D-02
 Coeff:      0.357D-02 0.751D-01 0.257D+00 0.667D+00
 Gap=     0.150 Goal=   None    Shift=    0.000
 Gap=     0.150 Goal=   None    Shift=    0.000
 RMSDP=4.63D-07 MaxDP=1.73D-05 DE=-1.06D-08 OVMax= 2.34D-05

 Cycle  11  Pass 1  IDiag  1:
 RMSU=  2.83D-07    CP:  7.04D-01  1.28D+00  8.00D-01  5.92D-01  7.13D-01
                    CP:  6.79D-01  8.27D-01  8.28D-01  8.45D-01  7.96D-01
 E= -345.471272180412     Delta-E=       -0.000000000942 Rises=F Damp=F
 DIIS: error= 7.84D-07 at cycle  11 NSaved=  11.
 NSaved=11 IEnMin=11 EnMin= -345.471272180412     IErMin=11 ErrMin= 7.84D-07
 ErrMax= 7.84D-07  0.00D+00 EMaxC= 1.00D-01 BMatC= 5.93D-10 BMatP= 3.78D-09
 IDIUse=1 WtCom= 1.00D+00 WtEn= 0.00D+00
 Coeff-Com:  0.223D-04-0.344D-04-0.210D-03-0.308D-03-0.122D-02-0.172D-02
 Coeff-Com: -0.234D-02 0.197D-01 0.109D+00 0.393D+00 0.485D+00
 Coeff:      0.223D-04-0.344D-04-0.210D-03-0.308D-03-0.122D-02-0.172D-02
 Coeff:     -0.234D-02 0.197D-01 0.109D+00 0.393D+00 0.485D+00
 Gap=     0.150 Goal=   None    Shift=    0.000
 Gap=     0.150 Goal=   None    Shift=    0.000
 RMSDP=1.68D-07 MaxDP=9.49D-06 DE=-9.42D-10 OVMax= 3.98D-06

 Cycle  12  Pass 1  IDiag  1:
 RMSU=  1.09D-07    CP:  7.04D-01  1.28D+00  8.00D-01  5.92D-01  7.13D-01
                    CP:  6.79D-01  8.27D-01  8.30D-01  8.35D-01  8.24D-01
                    CP:  8.01D-01
 E= -345.471272180562     Delta-E=       -0.000000000150 Rises=F Damp=F
 DIIS: error= 1.34D-07 at cycle  12 NSaved=  12.
 NSaved=12 IEnMin=12 EnMin= -345.471272180562     IErMin=12 ErrMin= 1.34D-07
 ErrMax= 1.34D-07  0.00D+00 EMaxC= 1.00D-01 BMatC= 2.46D-11 BMatP= 5.93D-10
 IDIUse=1 WtCom= 1.00D+00 WtEn= 0.00D+00
 Coeff-Com:  0.307D-05 0.228D-06-0.324D-04-0.598D-04-0.302D-03-0.459D-03
 Coeff-Com: -0.196D-02-0.494D-02-0.456D-02 0.536D-01 0.148D+00 0.811D+00
 Coeff:      0.307D-05 0.228D-06-0.324D-04-0.598D-04-0.302D-03-0.459D-03
 Coeff:     -0.196D-02-0.494D-02-0.456D-02 0.536D-01 0.148D+00 0.811D+00
 Gap=     0.150 Goal=   None    Shift=    0.000
 Gap=     0.150 Goal=   None    Shift=    0.000
 RMSDP=4.32D-08 MaxDP=1.52D-06 DE=-1.50D-10 OVMax= 1.11D-06

 Cycle  13  Pass 1  IDiag  1:
 RMSU=  3.18D-08    CP:  7.04D-01  1.28D+00  8.00D-01  5.92D-01  7.13D-01
                    CP:  6.79D-01  8.27D-01  8.30D-01  8.36D-01  8.41D-01
                    CP:  8.19D-01  9.70D-01
 E= -345.471272180578     Delta-E=       -0.000000000016 Rises=F Damp=F
 DIIS: error= 5.72D-08 at cycle  13 NSaved=  13.
 NSaved=13 IEnMin=13 EnMin= -345.471272180578     IErMin=13 ErrMin= 5.72D-08
 ErrMax= 5.72D-08  0.00D+00 EMaxC= 1.00D-01 BMatC= 2.86D-12 BMatP= 2.46D-11
 IDIUse=1 WtCom= 1.00D+00 WtEn= 0.00D+00
 Coeff-Com:  0.754D-06 0.122D-05-0.684D-05-0.174D-04-0.936D-04-0.133D-03
 Coeff-Com: -0.815D-03-0.281D-02-0.607D-02 0.157D-01 0.553D-01 0.400D+00
 Coeff-Com:  0.539D+00
 Coeff:      0.754D-06 0.122D-05-0.684D-05-0.174D-04-0.936D-04-0.133D-03
 Coeff:     -0.815D-03-0.281D-02-0.607D-02 0.157D-01 0.553D-01 0.400D+00
 Coeff:      0.539D+00
 Gap=     0.150 Goal=   None    Shift=    0.000
 Gap=     0.150 Goal=   None    Shift=    0.000
 RMSDP=1.07D-08 MaxDP=4.35D-07 DE=-1.65D-11 OVMax= 5.13D-07

 Cycle  14  Pass 1  IDiag  1:
 RMSU=  8.50D-09    CP:  7.04D-01  1.28D+00  8.00D-01  5.92D-01  7.13D-01
                    CP:  6.79D-01  8.27D-01  8.31D-01  8.35D-01  8.39D-01
                    CP:  8.21D-01  9.80D-01  9.79D-01
 E= -345.471272180581     Delta-E=       -0.000000000003 Rises=F Damp=F
 DIIS: error= 2.48D-08 at cycle  14 NSaved=  14.
 NSaved=14 IEnMin=14 EnMin= -345.471272180581     IErMin=14 ErrMin= 2.48D-08
 ErrMax= 2.48D-08  0.00D+00 EMaxC= 1.00D-01 BMatC= 5.14D-13 BMatP= 2.86D-12
 IDIUse=1 WtCom= 1.00D+00 WtEn= 0.00D+00
 Coeff-Com: -0.206D-06 0.400D-06 0.274D-05 0.306D-05 0.132D-04 0.190D-04
 Coeff-Com: -0.176D-04-0.496D-03-0.241D-02-0.309D-02-0.722D-02 0.546D-02
 Coeff-Com:  0.300D+00 0.708D+00
 Coeff:     -0.206D-06 0.400D-06 0.274D-05 0.306D-05 0.132D-04 0.190D-04
 Coeff:     -0.176D-04-0.496D-03-0.241D-02-0.309D-02-0.722D-02 0.546D-02
 Coeff:      0.300D+00 0.708D+00
 Gap=     0.150 Goal=   None    Shift=    0.000
 Gap=     0.150 Goal=   None    Shift=    0.000
 RMSDP=4.72D-09 MaxDP=2.02D-07 DE=-2.84D-12 OVMax= 2.01D-07

 SCF Done:  E(UB3LYP) =  -345.471272181     A.U. after   14 cycles
            NFock= 14  Conv=0.47D-08     -V/T= 2.0065
 <Sx>= 0.0000 <Sy>= 0.0000 <Sz>= 0.0000 <S**2>=-0.0000 S=-0.0000
 <L.S>= 0.000000000000E+00
 KE= 3.432549791527D+02 PE=-1.455338457604D+03 EE= 4.405426731948D+02
 Annihilation of the first spin contaminant:
 S**2 before annihilation    -0.0000,   after     0.0000
 Leave Link  502 at Sat Nov  5 14:04:21 2016, MaxMem=   524288000 cpu:             791.3 elap:             113.1
 (Enter /home/ubuntu/g16/l601.exe)
 Copying SCF densities to generalized density rwf, IOpCl= 1 IROHF=0.

 **********************************************************************

            Population analysis using the SCF density.

 **********************************************************************

 Orbital symmetries:
 Alpha Orbitals:
       Occupied  (A) (A) (A) (A) (A) (A) (A) (A) (A) (A) (A) (A)
                 (A) (A) (A) (A) (A) (A) (A) (A) (A) (A) (A) (A)
                 (A) (A) (A) (A)
       Virtual   (A) (A) (A) (A) (A) (A) (A) (A) (A) (A) (A) (A)
                 (A) (A) (A) (A) (A) (A) (A) (A) (A) (A) (A) (A)
                 (A) (A) (A) (A) (A) (A) (A) (A) (A) (A) (A) (A)
                 (A) (A) (A) (A) (A) (A) (A) (A) (A) (A) (A) (A)
                 (A) (A) (A) (A) (A) (A) (A) (A) (A) (A) (A) (A)
                 (A) (A) (A) (A) (A) (A) (A) (A) (A) (A) (A) (A)
                 (A) (A) (A) (A) (A) (A) (A) (A) (A) (A) (A) (A)
                 (A) (A) (A) (A) (A) (A) (A) (A) (A) (A) (A) (A)
                 (A) (A) (A) (A) (A) (A) (A) (A) (A) (A) (A) (A)
                 (A) (A) (A) (A) (A) (A) (A) (A) (A) (A) (A) (A)
                 (A) (A) (A) (A) (A) (A) (A) (A) (A) (A) (A) (A)
                 (A) (A) (A) (A) (A) (A) (A) (A) (A) (A) (A) (A)
                 (A) (A) (A) (A) (A) (A) (A) (A) (A) (A) (A) (A)
                 (A) (A) (A) (A) (A) (A) (A) (A) (A) (A) (A) (A)
                 (A) (A) (A) (A) (A) (A) (A) (A) (A) (A) (A) (A)
                 (A) (A) (A) (A) (A) (A) (A) (A) (A) (A) (A) (A)
                 (A) (A) (A) (A) (A) (A) (A) (A) (A) (A) (A) (A)
                 (A) (A) (A) (A) (A) (A)
 Beta  Orbitals:
       Occupied  (A) (A) (A) (A) (A) (A) (A) (A) (A) (A) (A) (A)
                 (A) (A) (A) (A) (A) (A) (A) (A) (A) (A) (A) (A)
                 (A) (A) (A) (A)
       Virtual   (A) (A) (A) (A) (A) (A) (A) (A) (A) (A) (A) (A)
                 (A) (A) (A) (A) (A) (A) (A) (A) (A) (A) (A) (A)
                 (A) (A) (A) (A) (A) (A) (A) (A) (A) (A) (A) (A)
                 (A) (A) (A) (A) (A) (A) (A) (A) (A) (A) (A) (A)
                 (A) (A) (A) (A) (A) (A) (A) (A) (A) (A) (A) (A)
                 (A) (A) (A) (A) (A) (A) (A) (A) (A) (A) (A) (A)
                 (A) (A) (A) (A) (A) (A) (A) (A) (A) (A) (A) (A)
                 (A) (A) (A) (A) (A) (A) (A) (A) (A) (A) (A) (A)
                 (A) (A) (A) (A) (A) (A) (A) (A) (A) (A) (A) (A)
                 (A) (A) (A) (A) (A) (A) (A) (A) (A) (A) (A) (A)
                 (A) (A) (A) (A) (A) (A) (A) (A) (A) (A) (A) (A)
                 (A) (A) (A) (A) (A) (A) (A) (A) (A) (A) (A) (A)
                 (A) (A) (A) (A) (A) (A) (A) (A) (A) (A) (A) (A)
                 (A) (A) (A) (A) (A) (A) (A) (A) (A) (A) (A) (A)
                 (A) (A) (A) (A) (A) (A) (A) (A) (A) (A) (A) (A)
                 (A) (A) (A) (A) (A) (A) (A) (A) (A) (A) (A) (A)
                 (A) (A) (A) (A) (A) (A) (A) (A) (A) (A) (A) (A)
                 (A) (A) (A) (A) (A) (A)
 The electronic state is 1-A.
     Natural Orbital Coefficients:
                           1         2         3         4         5
     Eigenvalues --     2.00000   2.00000   2.00000   2.00000   2.00000
   1 1   C  1S         -0.00433  -0.22207  -0.01459   0.09720  -0.00893
   2        2S          0.00620   0.30926   0.00333  -0.04900   0.04714
   3        3S          0.00976   0.45371   0.01332  -0.08492   0.04505
   4        4S         -0.01431  -0.17644  -0.02035  -0.13992   0.12132
   5        5PX         0.01440  -0.05048  -0.02573   0.04169   0.32083
   6        5PY         0.00005  -0.01666  -0.00609  -0.04199   0.10922
   7        5PZ         0.29423  -0.00102  -0.17457   0.01084  -0.00004
   8        6PX         0.00706  -0.06079  -0.01997   0.00744   0.15898
   9        6PY        -0.00266   0.19622   0.00894  -0.00824   0.03284
  10        6PZ         0.18119  -0.00087  -0.08264   0.01921  -0.00276
  11        7PX         0.00217   0.10327   0.00772   0.07993   0.05020
  12        7PY         0.01751  -0.24635  -0.03869  -0.19266  -0.20315
  13        7PZ         0.03112  -0.00038  -0.00205  -0.00096   0.00015
  14        8D 0       -0.00024  -0.00719   0.00041   0.00529   0.00349
  15        8D+1       -0.00514  -0.00031   0.00576  -0.00193   0.00007
  16        8D-1       -0.00113   0.00104   0.01007   0.01364  -0.00216
  17        8D+2        0.00036  -0.00606   0.00008   0.00189  -0.00868
  18        8D-2       -0.00159  -0.00253   0.00072  -0.00089  -0.01984
  19        9D 0       -0.00030   0.00332   0.00107   0.00302  -0.00753
  20        9D+1        0.00090  -0.00024   0.00139  -0.00135   0.00030
  21        9D-1       -0.00178   0.00041  -0.00505   0.00266  -0.00068
  22        9D+2        0.00110  -0.00213   0.00022   0.00846   0.00046
  23        9D-2        0.00232  -0.02886  -0.00332   0.00632   0.00846
  24 2   C  1S          0.01326  -0.12624   0.00860   0.06154   0.17174
  25        2S          0.01186   0.13780  -0.03315  -0.13163  -0.06933
  26        3S          0.01750   0.13364  -0.05992  -0.22380  -0.23160
  27        4S          0.02744   0.16637   0.00558   0.17396   0.02958
  28        5PX         0.01490   0.08981   0.00766   0.10528   0.25188
  29        5PY        -0.01747   0.13741   0.04385   0.05217  -0.22396
  30        5PZ         0.12671  -0.00828  -0.21898  -0.13131   0.02415
  31        6PX         0.00439   0.05553   0.01078   0.11092   0.27458
  32        6PY        -0.01665  -0.01172   0.02367   0.04035  -0.02519
  33        6PZ         0.06777  -0.00546  -0.10303  -0.07427   0.01384
  34        7PX         0.01066  -0.22487  -0.03352  -0.19460  -0.16742
  35        7PY         0.00861  -0.14968  -0.02192  -0.12448  -0.13570
  36        7PZ         0.01685  -0.00146  -0.01206  -0.01045   0.00116
  37        8D 0       -0.00005  -0.00854   0.00047   0.00428   0.00285
  38        8D+1        0.01871   0.00020   0.00234   0.01003  -0.00202
  39        8D-1        0.01870   0.00007  -0.00768   0.00378  -0.00058
  40        8D+2        0.00048  -0.01169  -0.00301  -0.00324   0.00856
  41        8D-2        0.00096   0.01071  -0.00085  -0.00032   0.01089
  42        9D 0       -0.00083  -0.00413   0.00131   0.00091  -0.00613
  43        9D+1        0.00365   0.00016  -0.00854  -0.00016  -0.00069
  44        9D-1       -0.00007  -0.00005  -0.00434  -0.00385   0.00020
  45        9D+2        0.00244   0.01379  -0.00132  -0.01090  -0.04159
  46        9D-2        0.00191   0.03405  -0.00054   0.00595  -0.00507
  47 3   C  1S          0.01599  -0.05463   0.01058   0.11667   0.05952
  48        2S         -0.00455   0.10112  -0.00170  -0.03572  -0.01532
  49        3S         -0.01793  -0.05880  -0.00262  -0.00568   0.05661
  50        4S         -0.02082  -0.39482  -0.07972  -0.41477  -0.05404
  51        5PX         0.00510  -0.08305  -0.04218  -0.17421  -0.14680
  52        5PY        -0.00040  -0.06949  -0.02682  -0.06233  -0.06080
  53        5PZ        -0.22582  -0.00529  -0.09433  -0.18390   0.03671
  54        6PX        -0.00375   0.03159   0.02004   0.09608   0.26878
  55        6PY        -0.00787   0.09796   0.02711   0.10556   0.06063
  56        6PZ        -0.14892  -0.00168  -0.07904  -0.09478   0.01831
  57        7PX         0.00827  -0.21734  -0.03008  -0.18603  -0.14907
  58        7PY        -0.00565  -0.00931  -0.00319  -0.01524   0.05900
  59        7PZ        -0.02511  -0.00097  -0.00092  -0.01656   0.00262
  60        8D 0        0.00022  -0.00400   0.00011   0.00218   0.00500
  61        8D+1        0.01410  -0.00043  -0.01662  -0.00422   0.00037
  62        8D-1       -0.01102  -0.00003   0.00243  -0.00559   0.00150
  63        8D+2        0.00116  -0.00058  -0.00251  -0.00656  -0.00068
  64        8D-2       -0.00120   0.00443   0.00153  -0.00393  -0.02097
  65        9D 0        0.00070  -0.00006  -0.00117  -0.00208   0.00186
  66        9D+1        0.00358  -0.00014  -0.01836  -0.00706  -0.00004
  67        9D-1       -0.00288   0.00143  -0.01721   0.01182  -0.00223
  68        9D+2       -0.00072  -0.01973   0.00400   0.01387   0.02252
  69        9D-2       -0.00038   0.01356   0.00334   0.02948   0.07274
  70 4   C  1S          0.01574  -0.01197   0.00478  -0.02269   0.04495
  71        2S         -0.00146   0.05952  -0.00625  -0.01014   0.05122
  72        3S          0.00201  -0.15264  -0.02035   0.00413   0.27008
  73        4S          0.00719   0.54025   0.11758   0.60711   0.16243
  74        5PX        -0.00299  -0.05991  -0.02186  -0.06010   0.03056
  75        5PY        -0.00556  -0.06551  -0.02029  -0.10796  -0.02271
  76        5PZ        -0.29169   0.00213   0.19737  -0.06448   0.02595
  77        6PX        -0.00207  -0.09588  -0.02199  -0.04514   0.05233
  78        6PY        -0.00766  -0.13693  -0.00920  -0.04847  -0.08630
  79        6PZ        -0.17765   0.00015   0.10765  -0.05451   0.01636
  80        7PX         0.01779   0.07009   0.01476   0.07667  -0.14353
  81        7PY        -0.02173   0.24119   0.02877   0.21073   0.21299
  82        7PZ        -0.04506   0.00241  -0.03311   0.01479  -0.00256
  83        8D 0       -0.00028  -0.00782  -0.00055  -0.00076   0.00452
  84        8D+1       -0.02678   0.00124  -0.02769  -0.00285   0.00006
  85        8D-1       -0.00740   0.00145   0.00087   0.01352  -0.00217
  86        8D+2        0.00112  -0.00499  -0.00059  -0.00628  -0.01017
  87        8D-2        0.00221  -0.00050  -0.00016   0.00231  -0.01203
  88        9D 0       -0.00066  -0.00978   0.00001   0.00283   0.01687
  89        9D+1       -0.00963  -0.00104   0.02424  -0.01303   0.00359
  90        9D-1       -0.01040   0.00080   0.01010   0.01008  -0.00091
  91        9D+2        0.00077  -0.03750  -0.01237  -0.05586  -0.14567
  92        9D-2       -0.00364  -0.02871  -0.00214   0.00502   0.00576
  93 5   O  1S         -0.00288   0.01525   0.00661  -0.00520   0.03470
  94        2S          0.00017  -0.00894  -0.00452  -0.00543  -0.07310
  95        3S          0.00014  -0.02617  -0.00824  -0.00909  -0.08758
  96        4S          0.00752  -0.06716  -0.01916  -0.08895  -0.10258
  97        5PX         0.01001   0.10637   0.01969   0.06570  -0.06934
  98        5PY        -0.00395   0.01038  -0.00100  -0.04897   0.20637
  99        5PZ         0.30547  -0.01801   0.46093   0.00797   0.01397
 100        6PX         0.00361   0.04390   0.00799   0.02358  -0.00591
 101        6PY        -0.00101   0.01393   0.00060  -0.02293   0.12539
 102        6PZ         0.22092  -0.01255   0.31452   0.00735   0.00876
 103        7PX        -0.00206  -0.04597  -0.01337  -0.04434  -0.01431
 104        7PY         0.00136   0.00715   0.00344  -0.00156   0.02601
 105        7PZ         0.09357  -0.00571   0.09200  -0.01944   0.00438
 106        8D 0        0.00002  -0.00196  -0.00018  -0.00077  -0.00330
 107        8D+1       -0.00355  -0.00026   0.00900  -0.00430   0.00103
 108        8D-1        0.00378  -0.00008   0.00790   0.00323  -0.00009
 109        8D+2       -0.00012   0.00203   0.00039   0.00405  -0.00161
 110        8D-2        0.00006   0.00292   0.00036   0.00015  -0.00250
 111        9D 0        0.00041   0.00146   0.00027   0.00034   0.00291
 112        9D+1       -0.00611  -0.00030   0.01242  -0.00518   0.00156
 113        9D-1        0.00311   0.00028   0.00761   0.00950  -0.00094
 114        9D+2       -0.00189  -0.00429  -0.00099   0.00121   0.00236
 115        9D-2       -0.00094  -0.00257  -0.00107  -0.00614   0.02004
 116 6   C  1S         -0.00647  -0.02241  -0.01057  -0.01552  -0.04695
 117        2S          0.01087   0.00482   0.00594   0.05306  -0.04784
 118        3S         -0.00212   0.01258   0.00626   0.02754   0.03473
 119        4S         -0.00603   0.00487   0.00329  -0.00461  -0.08258
 120        5PX         0.01033   0.00710  -0.00551  -0.08309   0.01944
 121        5PY         0.02431   0.06578   0.01117   0.01893  -0.20841
 122        5PZ        -0.04591   0.01794  -0.15085   0.25205  -0.03792
 123        6PX        -0.00725  -0.02290  -0.00077   0.00911   0.10098
 124        6PY        -0.00203  -0.00310   0.00027   0.01397  -0.08296
 125        6PZ         0.00080  -0.00005  -0.02151  -0.01098  -0.00042
 126        7PX        -0.00721   0.00928   0.00557   0.02269  -0.01013
 127        7PY        -0.00507   0.00191   0.00262   0.00911   0.01229
 128        7PZ        -0.01816   0.00068  -0.01967  -0.00712   0.00054
 129        8D 0        0.00115   0.00386   0.00019   0.00209  -0.01298
 130        8D+1        0.00837  -0.00027   0.01331   0.00342  -0.00021
 131        8D-1       -0.01997   0.00166  -0.02761   0.01132  -0.00199
 132        8D+2       -0.00073   0.00336   0.00064   0.00261   0.00584
 133        8D-2       -0.00005   0.00551   0.00109   0.00896  -0.01137
 134        9D 0       -0.00543  -0.01160  -0.00160   0.00218   0.01471
 135        9D+1        0.00521  -0.00164   0.01278  -0.02515   0.00345
 136        9D-1       -0.00062  -0.00162   0.01709  -0.02914   0.00401
 137        9D+2        0.00090  -0.00740  -0.00109  -0.00645   0.02049
 138        9D-2        0.00330   0.00608  -0.00096  -0.01694  -0.02432
 139 7   C  1S          0.00284  -0.01874   0.01421   0.03827   0.01156
 140        2S          0.00991   0.09490  -0.01916   0.00305   0.04695
 141        3S          0.02506  -0.08110  -0.05218  -0.05075   0.00097
 142        4S         -0.03229  -0.57033  -0.04761  -0.61810  -0.10215
 143        5PX         0.03144  -0.05477  -0.01826  -0.04992   0.03034
 144        5PY         0.00006   0.09890   0.02052   0.12889   0.01681
 145        5PZ        -0.24409   0.01937   0.07535   0.11729  -0.00876
 146        6PX         0.00514   0.00495  -0.00207   0.13451   0.06980
 147        6PY        -0.00136  -0.13053  -0.01279  -0.00518   0.02681
 148        6PZ        -0.14169   0.01141   0.03364   0.06833  -0.00659
 149        7PX        -0.04112   0.10676   0.03430   0.08398   0.19635
 150        7PY        -0.00670   0.18658   0.04264   0.20341   0.16366
 151        7PZ        -0.03272   0.00096   0.02520  -0.00471   0.00132
 152        8D 0        0.00023  -0.00314   0.00024   0.00215   0.00094
 153        8D+1        0.01009   0.00069  -0.00567   0.00793  -0.00131
 154        8D-1        0.01417   0.00002  -0.00849   0.00479  -0.00144
 155        8D+2        0.00150   0.00578   0.00055  -0.00001  -0.00300
 156        8D-2        0.00045  -0.01123  -0.00112  -0.00555   0.00243
 157        9D 0        0.00182  -0.00733  -0.00245  -0.00347   0.00478
 158        9D+1        0.01525  -0.00096  -0.00364  -0.00673   0.00042
 159        9D-1       -0.00041  -0.00059   0.01898  -0.00533   0.00150
 160        9D+2       -0.00420  -0.06033  -0.00959  -0.00729  -0.00637
 161        9D-2       -0.00681   0.07207   0.00254   0.05465  -0.02647
 162 8   C  1S         -0.02878  -0.03645   0.01962  -0.01133  -0.08517
 163        2S          0.00272   0.08471   0.00358  -0.08398   0.00238
 164        3S          0.02748  -0.00574  -0.00524  -0.09836   0.04441
 165        4S          0.05721   0.47899   0.01025   0.39832   0.00861
 166        5PX        -0.02861   0.05171   0.02021  -0.03678  -0.01410
 167        5PY        -0.01976  -0.17447   0.01012   0.03382  -0.00182
 168        5PZ         0.10419   0.01517  -0.03477   0.15337  -0.01997
 169        6PX        -0.00651  -0.09415  -0.01286   0.08002   0.01257
 170        6PY         0.00420   0.08947   0.00226  -0.00303   0.01670
 171        6PZ         0.05812   0.00858  -0.01036   0.09943  -0.01318
 172        7PX        -0.02295   0.14364   0.03407   0.08742   0.14285
 173        7PY        -0.00054  -0.11631  -0.02128  -0.12907  -0.08210
 174        7PZ         0.01967   0.00152  -0.00392   0.02228  -0.00296
 175        8D 0        0.00008  -0.00707  -0.00026   0.00219   0.00230
 176        8D+1        0.02126  -0.00097  -0.00847  -0.00532   0.00041
 177        8D-1       -0.01016  -0.00023   0.00697  -0.00192   0.00012
 178        8D+2        0.00226   0.00110  -0.00272   0.00472   0.02290
 179        8D-2        0.00017  -0.01956  -0.00120  -0.00347  -0.00670
 180        9D 0       -0.00058  -0.00118   0.00039  -0.00203   0.00455
 181        9D+1        0.01400  -0.00129   0.00545  -0.00890   0.00121
 182        9D-1        0.00330   0.00029   0.00087   0.00283  -0.00066
 183        9D+2       -0.00398   0.00250   0.00710  -0.03244   0.00248
 184        9D-2       -0.00246   0.10290   0.00678   0.00585  -0.01551
 185 9   H  1S         -0.00788   0.13239   0.03505   0.06912   0.03649
 186        2S         -0.01019   0.16434   0.06342   0.18345   0.07843
 187        3S         -0.00180  -0.01533  -0.00115  -0.01029   0.00564
 188        4PX        -0.00001   0.00291  -0.00024  -0.00307  -0.00080
 189        4PY        -0.00026   0.00944   0.00121   0.00267   0.00457
 190        4PZ        -0.00790  -0.00023  -0.00348  -0.00673   0.00129
 191        5PX        -0.00075   0.01551   0.00599   0.02486   0.02706
 192        5PY        -0.00164   0.03991   0.01363   0.04328   0.02278
 193        5PZ        -0.00697   0.00039  -0.01352   0.00010  -0.00046
 194 10  H  1S         -0.01306  -0.01972   0.00503   0.08548   0.05216
 195        2S         -0.03176  -0.06509  -0.00264   0.08218   0.12048
 196        3S         -0.00747   0.01172   0.00459   0.02145   0.00234
 197        4PX        -0.00006  -0.00128   0.00020   0.00381   0.00173
 198        4PY         0.00058   0.00077   0.00044   0.00315  -0.00491
 199        4PZ        -0.00139   0.00055  -0.00481   0.00792  -0.00118
 200        5PX        -0.00605  -0.02036  -0.00215   0.01291   0.02192
 201        5PY        -0.00168   0.00059   0.00093   0.00838   0.00127
 202        5PZ        -0.00008  -0.00036   0.00280  -0.00743   0.00109
 203 11  H  1S          0.09636   0.01879   0.15712  -0.15166  -0.09996
 204        2S          0.10264   0.00253   0.14215  -0.22581  -0.02259
 205        3S         -0.00885  -0.00351  -0.00547  -0.00921   0.00027
 206        4PX         0.00159   0.00072   0.00012  -0.00222  -0.00052
 207        4PY        -0.00120   0.00072  -0.00428   0.00570  -0.00060
 208        4PZ         0.00067   0.00207   0.00121   0.00095  -0.00774
 209        5PX        -0.00124  -0.00409  -0.00933  -0.00784   0.00674
 210        5PY        -0.00123  -0.00721  -0.00435   0.02326   0.00933
 211        5PZ         0.00390  -0.00101   0.01065  -0.03840   0.00481
 212 12  H  1S         -0.06149   0.04842  -0.14270   0.20991  -0.15387
 213        2S         -0.06022   0.03413  -0.14252   0.18474  -0.08110
 214        3S          0.01634  -0.00331   0.00620   0.01605  -0.00244
 215        4PX        -0.00118   0.00079  -0.00035  -0.00249  -0.00042
 216        4PY         0.00073  -0.00022   0.00404  -0.00864   0.00137
 217        4PZ        -0.00175  -0.00228   0.00008  -0.00534   0.00836
 218        5PX         0.00006  -0.00385   0.00748   0.00206   0.00608
 219        5PY        -0.00665  -0.00955   0.00232  -0.02326   0.01532
 220        5PZ        -0.00280  -0.00280   0.01187  -0.02739   0.00409
 221 13  H  1S         -0.01155   0.16193   0.01384   0.11312  -0.00013
 222        2S         -0.02319   0.34329   0.03700   0.28930  -0.04433
 223        3S         -0.00962   0.00463  -0.00332  -0.04225  -0.01692
 224        4PX         0.00039   0.00571  -0.00020   0.00352   0.00204
 225        4PY         0.00037  -0.00654  -0.00007  -0.00302  -0.00135
 226        4PZ        -0.00928   0.00079   0.00210   0.00511  -0.00046
 227        5PX        -0.00235   0.03010   0.00058   0.01727   0.00463
 228        5PY         0.00355  -0.08007  -0.01164  -0.06948   0.01216
 229        5PZ        -0.00848   0.00127  -0.01418   0.00818  -0.00169
 230 14  H  1S         -0.02418  -0.08183   0.01829  -0.03949  -0.04899
 231        2S         -0.03081  -0.24921   0.01809  -0.08376  -0.07922
 232        3S          0.00306  -0.00522   0.00291   0.02894   0.00147
 233        4PX        -0.00013   0.00272   0.00018   0.00015  -0.00135
 234        4PY         0.00082  -0.00253  -0.00075   0.00343  -0.00154
 235        4PZ         0.00382   0.00053  -0.00112   0.00550  -0.00072
 236        5PX         0.00408   0.00068  -0.00359   0.00736   0.00924
 237        5PY         0.00456   0.05581  -0.00112   0.01452   0.00905
 238        5PZ        -0.00023   0.00036  -0.00187   0.00478  -0.00076
                           6         7         8         9        10
     Eigenvalues --     2.00000   2.00000   2.00000   2.00000   2.00000
   1 1   C  1S          0.11750  -0.04057   0.01503   0.01853   0.01836
   2        2S         -0.03736   0.04743   0.01499   0.05644   0.01740
   3        3S         -0.08036   0.12380   0.03107   0.14962   0.00323
   4        4S         -0.17825  -0.02667   0.08942  -0.06094  -0.01216
   5        5PX         0.04683  -0.07687   0.03739  -0.14987   0.15149
   6        5PY        -0.09709  -0.05239   0.02487   0.05036  -0.06417
   7        5PZ         0.03994   0.11565   0.14419   0.00501   0.02043
   8        6PX         0.00896  -0.09049   0.06160  -0.10267   0.05551
   9        6PY        -0.00472   0.11370  -0.11896   0.12124   0.04393
  10        6PZ         0.00599   0.05499   0.06743   0.00311   0.01186
  11        7PX         0.06438  -0.01245  -0.00800   0.05641  -0.03757
  12        7PY        -0.06617  -0.02837   0.01689  -0.16801   0.25682
  13        7PZ         0.00219   0.00637   0.00630   0.00084  -0.00093
  14        8D 0        0.00426  -0.00040  -0.00138   0.00002  -0.00045
  15        8D+1       -0.00091  -0.00672  -0.01007  -0.00000  -0.00181
  16        8D-1       -0.01150   0.00670   0.01285  -0.00014   0.00280
  17        8D+2        0.00219  -0.00519   0.00087   0.01146  -0.00499
  18        8D-2       -0.00064   0.00869  -0.00523   0.00048  -0.00036
  19        9D 0        0.00360   0.00421  -0.00196   0.00408  -0.00164
  20        9D+1        0.00066  -0.00203  -0.00307   0.00015  -0.00005
  21        9D-1       -0.00116   0.00191   0.00253  -0.00008  -0.00034
  22        9D+2        0.01293   0.00982  -0.01759   0.01049   0.01817
  23        9D-2        0.00330  -0.03555   0.02581  -0.00928  -0.00779
  24 2   C  1S          0.01345   0.04108   0.00855   0.05057  -0.20045
  25        2S         -0.07604   0.01483   0.00865  -0.04519   0.17132
  26        3S         -0.10998   0.02707   0.01563  -0.07223   0.35828
  27        4S          0.23600  -0.04540  -0.06546  -0.03065   0.13189
  28        5PX         0.13392  -0.01378   0.02351  -0.07653   0.06868
  29        5PY         0.05123   0.11762  -0.04035   0.11035  -0.16046
  30        5PZ         0.15112   0.02700   0.00312   0.00262  -0.00668
  31        6PX         0.09932   0.02116  -0.09470   0.00902   0.03047
  32        6PY         0.00868   0.07545  -0.10296   0.06850  -0.09584
  33        6PZ         0.07992   0.00174  -0.01649   0.00202  -0.00480
  34        7PX        -0.10127  -0.01193   0.01985  -0.14906   0.19470
  35        7PY        -0.06408   0.00126  -0.00031  -0.08414   0.13291
  36        7PZ         0.00867  -0.00457  -0.01104   0.00023  -0.00261
  37        8D 0        0.00423  -0.00173   0.00010  -0.00047  -0.00124
  38        8D+1       -0.00890   0.00320   0.00411   0.00039   0.00061
  39        8D-1       -0.00076   0.00708   0.00926   0.00031   0.00147
  40        8D+2       -0.00394  -0.00869   0.00352  -0.00653   0.00846
  41        8D-2        0.00172   0.00266  -0.00213  -0.00918   0.01146
  42        9D 0        0.00055   0.00785  -0.00308   0.00021  -0.00479
  43        9D+1        0.00084   0.00217   0.00055  -0.00010  -0.00281
  44        9D-1        0.00407   0.00359   0.00320  -0.00009  -0.00273
  45        9D+2       -0.00183  -0.00415   0.02456  -0.00639   0.00516
  46        9D-2        0.01477   0.00525  -0.01011   0.00009   0.02412
  47 3   C  1S          0.04873  -0.13625   0.15430  -0.07799  -0.23538
  48        2S         -0.08365   0.02044  -0.02319  -0.06687  -0.03039
  49        3S         -0.10617   0.07735  -0.00821  -0.03983  -0.01679
  50        4S         -0.41379  -0.18214   0.23269   0.10503   0.00420
  51        5PX        -0.13586  -0.01103   0.00011  -0.00305   0.14520
  52        5PY        -0.06105  -0.12805   0.10296   0.08722  -0.00272
  53        5PZ         0.17539  -0.02832  -0.04017  -0.00495  -0.00383
  54        6PX         0.07142   0.06212  -0.16450   0.06227  -0.04052
  55        6PY         0.06566   0.14175  -0.06028  -0.07020  -0.00616
  56        6PZ         0.09204  -0.02702  -0.04049  -0.00297  -0.00526
  57        7PX        -0.12233   0.01353   0.01614  -0.09069   0.16079
  58        7PY        -0.03828  -0.02665   0.03629   0.05907  -0.04680
  59        7PZ         0.01358  -0.00441  -0.00589  -0.00080  -0.00110
  60        8D 0        0.00267  -0.00020  -0.00050   0.00195   0.00067
  61        8D+1        0.00553   0.00059  -0.00276   0.00036  -0.00163
  62        8D-1        0.00568   0.00157   0.00430  -0.00027   0.00181
  63        8D+2       -0.00093  -0.00238  -0.00023   0.00271   0.01636
  64        8D-2       -0.00333   0.01297  -0.00710   0.00310  -0.00306
  65        9D 0       -0.00313  -0.00577   0.00212  -0.00201   0.00224
  66        9D+1        0.00764   0.00502   0.00061  -0.00027  -0.00754
  67        9D-1       -0.00760  -0.00145  -0.00224  -0.00014   0.00147
  68        9D+2        0.00288  -0.02735   0.00494   0.00700  -0.04049
  69        9D-2        0.03117  -0.01630  -0.01799   0.04702  -0.01663
  70 4   C  1S         -0.02513  -0.00023   0.04817   0.04078  -0.19663
  71        2S         -0.05427  -0.07957   0.02628  -0.03735  -0.10438
  72        3S         -0.06516  -0.06928   0.01608   0.01029   0.01215
  73        4S          0.57843   0.10173  -0.20171  -0.07406  -0.17277
  74        5PX        -0.11919  -0.07564   0.10791  -0.08778  -0.05721
  75        5PY        -0.14260   0.03776  -0.02602  -0.11973  -0.02612
  76        5PZ         0.05470   0.01701   0.09712  -0.00749   0.05505
  77        6PX        -0.07445  -0.06833   0.02966  -0.03523  -0.03014
  78        6PY        -0.10231   0.11512   0.05867  -0.11881   0.08152
  79        6PZ         0.04407   0.01216   0.05065  -0.00443   0.01741
  80        7PX         0.16237   0.04089  -0.07791  -0.13458   0.11387
  81        7PY         0.09516  -0.07213   0.03386   0.18064  -0.27377
  82        7PZ        -0.00888  -0.00905  -0.01074  -0.00074   0.00348
  83        8D 0       -0.00205   0.00123   0.00361  -0.00454   0.00240
  84        8D+1        0.00718   0.00521   0.00556  -0.00070  -0.00280
  85        8D-1       -0.00960   0.00895   0.01573  -0.00034   0.00249
  86        8D+2        0.00217   0.00632  -0.00776   0.01798   0.01283
  87        8D-2        0.01324  -0.01524   0.00891  -0.00002   0.00536
  88        9D 0       -0.00151   0.00573  -0.00004  -0.00039  -0.00271
  89        9D+1        0.00983   0.00310   0.00920  -0.00014   0.00325
  90        9D-1       -0.00850  -0.00094   0.00531  -0.00033   0.00736
  91        9D+2       -0.04506  -0.10155   0.08745  -0.01060  -0.04168
  92        9D-2       -0.02740   0.03263   0.02648  -0.05170  -0.00383
  93 5   O  1S         -0.04628  -0.03920   0.09449   0.02136   0.01058
  94        2S          0.02711   0.09118  -0.06909   0.10650   0.03597
  95        3S          0.03811   0.09703  -0.07626   0.12028   0.05763
  96        4S         -0.02689  -0.03640   0.01637  -0.01925   0.09325
  97        5PX         0.14265  -0.09429  -0.00718   0.06743   0.02550
  98        5PY        -0.11575   0.20978  -0.18395   0.02166  -0.00588
  99        5PZ        -0.06705  -0.07981  -0.04809   0.00951   0.08867
 100        6PX         0.05251  -0.03800  -0.01045   0.02983   0.01213
 101        6PY        -0.05998   0.12736  -0.11309   0.00314  -0.00316
 102        6PZ        -0.04756  -0.05552  -0.03447   0.00674   0.06105
 103        7PX        -0.04784  -0.01607   0.01519   0.05795   0.01331
 104        7PY         0.00047   0.03275  -0.03110  -0.02333   0.01381
 105        7PZ         0.00337  -0.00269  -0.00090   0.00210   0.00415
 106        8D 0       -0.00003  -0.00520   0.00518  -0.00121   0.00022
 107        8D+1        0.00304   0.00106   0.00286  -0.00012   0.00044
 108        8D-1       -0.00370  -0.00261  -0.00160   0.00017   0.00318
 109        8D+2        0.00482  -0.00402   0.00199   0.00537  -0.00120
 110        8D-2        0.00223  -0.00426   0.00004   0.00148   0.00021
 111        9D 0        0.00348  -0.00107  -0.00205   0.00393   0.00587
 112        9D+1        0.00374   0.00203   0.00528  -0.00022   0.00150
 113        9D-1       -0.00897  -0.00748  -0.00615   0.00025   0.00686
 114        9D+2       -0.00614  -0.00404   0.00808   0.00914  -0.00817
 115        9D-2       -0.01256   0.00479  -0.00465   0.00261  -0.00304
 116 6   C  1S         -0.01687  -0.07348   0.05813   0.02058   0.07301
 117        2S          0.03547   0.13704  -0.07578  -0.17583  -0.00021
 118        3S         -0.00856   0.07139  -0.04559  -0.08048  -0.03779
 119        4S         -0.00516   0.04431  -0.02678  -0.03861  -0.00904
 120        5PX        -0.05082   0.03522  -0.04160  -0.07484   0.06201
 121        5PY         0.14237  -0.14227   0.07936  -0.19407   0.07205
 122        5PZ        -0.19737  -0.13618  -0.13627   0.00367   0.10402
 123        6PX        -0.03622   0.05015  -0.02199   0.03108  -0.02535
 124        6PY         0.01999  -0.02894   0.03048   0.01753  -0.01820
 125        6PZ         0.01265   0.01386   0.01124  -0.00014  -0.01281
 126        7PX         0.00325   0.02747  -0.01234  -0.00669  -0.03228
 127        7PY        -0.00897   0.00709   0.00186   0.01581  -0.03044
 128        7PZ         0.00941   0.01034   0.00973  -0.00083  -0.00820
 129        8D 0        0.00957  -0.01429   0.00912  -0.01038   0.00391
 130        8D+1       -0.00434  -0.00368  -0.00191   0.00022   0.00393
 131        8D-1       -0.00629  -0.00247  -0.00386  -0.00020   0.00122
 132        8D+2       -0.00044   0.00499  -0.00610   0.00767  -0.00297
 133        8D-2        0.01197  -0.01543   0.01011  -0.00273  -0.00348
 134        9D 0       -0.02016   0.01285  -0.00035   0.03910  -0.02323
 135        9D+1        0.02007   0.01584   0.01637  -0.00023  -0.01085
 136        9D-1        0.02363   0.01620   0.01752  -0.00106  -0.01189
 137        9D+2       -0.00539   0.00625  -0.00380  -0.00306   0.00965
 138        9D-2        0.00010  -0.00646  -0.00068  -0.00818   0.01735
 139 7   C  1S          0.02343   0.18087   0.00992   0.11635  -0.06572
 140        2S          0.00349  -0.14830   0.03806  -0.05526  -0.06284
 141        3S          0.01410  -0.36818   0.13788  -0.02131   0.00266
 142        4S         -0.65425   0.21578   0.08882  -0.18474   0.12013
 143        5PX         0.03258  -0.12057   0.09917   0.04216   0.10314
 144        5PY         0.17158  -0.00273  -0.05009   0.09569   0.03146
 145        5PZ        -0.06465   0.13801   0.27225  -0.00839   0.06617
 146        6PX         0.13082  -0.03817  -0.02224  -0.04512   0.07184
 147        6PY        -0.03378   0.04405   0.04793  -0.04726   0.09389
 148        6PZ        -0.03871   0.07995   0.15092  -0.00511   0.02886
 149        7PX        -0.06223   0.05597   0.01032   0.08895  -0.27185
 150        7PY         0.14834   0.00958  -0.01767   0.08026  -0.15406
 151        7PZ         0.00408   0.01725   0.02916  -0.00143  -0.00141
 152        8D 0        0.00363   0.00250  -0.00045  -0.00016   0.00592
 153        8D+1       -0.00418   0.00868   0.01280   0.00012   0.00180
 154        8D-1       -0.00382   0.00038  -0.00230   0.00032  -0.00187
 155        8D+2        0.00628  -0.00331   0.00114   0.00805   0.00429
 156        8D-2       -0.00349  -0.00154   0.00063  -0.01301   0.00411
 157        9D 0        0.00123  -0.01025   0.00730   0.00802   0.01031
 158        9D+1        0.00531   0.00632   0.00414   0.00017  -0.00560
 159        9D-1        0.00269   0.00134   0.00405  -0.00012   0.00087
 160        9D+2       -0.04121   0.00995   0.01335  -0.05671   0.00435
 161        9D-2        0.04141  -0.04187  -0.00784  -0.04566  -0.06855
 162 8   C  1S          0.13038   0.15695  -0.18097   0.16767   0.46933
 163        2S         -0.07037  -0.04547   0.03549  -0.05524  -0.04873
 164        3S         -0.04225  -0.16723   0.13354   0.08176  -0.07362
 165        4S          0.45853  -0.15228  -0.07765   0.29795   0.01079
 166        5PX        -0.12102   0.15379  -0.06017  -0.03341  -0.09179
 167        5PY         0.02092   0.05560  -0.04188  -0.24180  -0.00411
 168        5PZ        -0.08052   0.18466   0.29858  -0.00041   0.05739
 169        6PX         0.03266  -0.08029   0.02892  -0.08256  -0.01121
 170        6PY        -0.00071   0.07400  -0.06581   0.12647   0.06110
 171        6PZ        -0.05820   0.09479   0.15909  -0.00058   0.03679
 172        7PX        -0.01836   0.06948  -0.01594   0.08546  -0.20255
 173        7PY        -0.10394   0.00355   0.01788  -0.05778   0.08069
 174        7PZ        -0.01644   0.00629   0.01141   0.00068   0.00568
 175        8D 0        0.00190   0.00130  -0.00102   0.00019   0.00340
 176        8D+1        0.00406  -0.00394  -0.00990   0.00060  -0.00270
 177        8D-1       -0.00109  -0.00724  -0.01031  -0.00013  -0.00178
 178        8D+2        0.00668  -0.01575   0.00522  -0.00195   0.00879
 179        8D-2       -0.00198  -0.00453   0.00280  -0.01247   0.00018
 180        9D 0       -0.00221  -0.00011  -0.00145   0.00000   0.00200
 181        9D+1        0.00585   0.00242   0.00012   0.00020  -0.00395
 182        9D-1       -0.00278   0.00143   0.00150  -0.00005  -0.00046
 183        9D+2       -0.03859   0.05100  -0.02377  -0.00056  -0.00918
 184        9D-2       -0.00051   0.03599  -0.02506   0.05308  -0.02645
 185 9   H  1S          0.02760   0.13452  -0.10298  -0.09772  -0.07565
 186        2S          0.12364   0.21793  -0.15320  -0.14193  -0.11781
 187        3S         -0.01326  -0.00589   0.00753   0.00929  -0.00891
 188        4PX        -0.00323   0.00409  -0.00355  -0.00250   0.00279
 189        4PY         0.00024   0.00472  -0.00478  -0.00574  -0.00223
 190        4PZ         0.00633  -0.00118  -0.00175  -0.00015  -0.00029
 191        5PX         0.01906   0.00699  -0.00752   0.00331  -0.01712
 192        5PY         0.03308   0.05204  -0.03530  -0.03663  -0.01782
 193        5PZ         0.00103  -0.00227  -0.00456  -0.00009  -0.00129
 194 10  H  1S          0.00202   0.10190  -0.04738   0.05678  -0.08177
 195        2S         -0.06033   0.08118  -0.01105   0.23144  -0.14326
 196        3S         -0.00164   0.02216  -0.01147   0.01356  -0.03779
 197        4PX         0.00021   0.00927  -0.00495  -0.00280  -0.00243
 198        4PY         0.00423   0.00129  -0.00030  -0.00699   0.00020
 199        4PZ        -0.00621  -0.00423  -0.00429   0.00012   0.00325
 200        5PX        -0.01489   0.01396   0.00332   0.04987  -0.02560
 201        5PY         0.00035   0.00721  -0.00270   0.01168  -0.01021
 202        5PZ         0.00619   0.00487   0.00496  -0.00006  -0.00335
 203 11  H  1S          0.21944   0.08289   0.09389  -0.18751  -0.02962
 204        2S          0.21593   0.06049   0.13698  -0.12782   0.00370
 205        3S          0.02837   0.00535   0.01668  -0.01551   0.00968
 206        4PX        -0.00139  -0.00109  -0.00086  -0.00151   0.00140
 207        4PY        -0.00612  -0.00957  -0.00104   0.00397   0.00339
 208        4PZ         0.00751   0.00445  -0.00049  -0.01378   0.00097
 209        5PX        -0.00053   0.00075   0.00626   0.01326  -0.00558
 210        5PY        -0.03527  -0.00759  -0.01549   0.02377  -0.00280
 211        5PZ         0.03076   0.01934   0.02038  -0.01793  -0.00063
 212 12  H  1S         -0.05330  -0.09450  -0.08669  -0.18319   0.10654
 213        2S         -0.10186  -0.16488  -0.09012  -0.12288   0.17602
 214        3S          0.00352  -0.02053  -0.00954  -0.01347   0.02901
 215        4PX        -0.00100  -0.00016   0.00058  -0.00151   0.00110
 216        4PY         0.00541  -0.00149   0.00719   0.00348  -0.00257
 217        4PZ        -0.00382  -0.00181   0.00332   0.01371  -0.00301
 218        5PX        -0.01035  -0.00616   0.00267   0.01339   0.00199
 219        5PY         0.00459   0.02292   0.01455   0.02224  -0.02673
 220        5PZ         0.02362   0.02205   0.02097   0.01685  -0.03141
 221 13  H  1S          0.09631  -0.02565  -0.06175   0.02082  -0.07962
 222        2S          0.24221  -0.03633  -0.12551   0.00487  -0.20189
 223        3S         -0.06483   0.02313  -0.01153   0.00430  -0.02862
 224        4PX         0.00495  -0.00561  -0.00007   0.00101  -0.00064
 225        4PY        -0.00180   0.00268   0.00228   0.00341   0.00393
 226        4PZ        -0.00302   0.00460   0.00939  -0.00030   0.00257
 227        5PX         0.00562   0.00548  -0.01626   0.01053  -0.01559
 228        5PY        -0.06687   0.00238   0.03010   0.00529   0.04109
 229        5PZ        -0.00423   0.00482   0.00679  -0.00016  -0.00017
 230 14  H  1S         -0.07127   0.07238  -0.02919  -0.22912  -0.08802
 231        2S         -0.10568   0.10778  -0.01166  -0.31038  -0.06106
 232        3S          0.03572  -0.00648  -0.00433  -0.01142   0.00175
 233        4PX        -0.00061   0.00286  -0.00100   0.00557   0.00038
 234        4PY         0.00532  -0.00149  -0.00005   0.01086   0.00562
 235        4PZ        -0.00295   0.00657   0.01059  -0.00004   0.00198
 236        5PX         0.01551  -0.02399   0.00859   0.01602   0.01417
 237        5PY         0.01414  -0.01420  -0.00345   0.06568  -0.00075
 238        5PZ        -0.00290   0.00340   0.00587  -0.00013   0.00140
                          11        12        13        14        15
     Eigenvalues --     2.00000   2.00000   2.00000   2.00000   2.00000
   1 1   C  1S          0.00761  -0.02191  -0.03006   0.11894   0.23851
   2        2S         -0.06935  -0.05902   0.03220   0.05491   0.01973
   3        3S         -0.22695  -0.11095   0.08935   0.15358  -0.04632
   4        4S          0.00082   0.03038   0.08438   0.07398  -0.01494
   5        5PX        -0.02084   0.01310  -0.03143   0.07170  -0.10364
   6        5PY        -0.05234   0.07230  -0.02088   0.15837  -0.07747
   7        5PZ        -0.00505   0.02499   0.00568  -0.06994   0.07273
   8        6PX         0.01416   0.02046   0.00808   0.03502  -0.04643
   9        6PY         0.01242  -0.04078  -0.13582  -0.04626   0.07143
  10        6PZ        -0.00037   0.01081   0.00078  -0.03278   0.03465
  11        7PX         0.00558  -0.05442  -0.02349  -0.01332  -0.04581
  12        7PY        -0.05806   0.21551  -0.01002   0.07521   0.07934
  13        7PZ         0.00220   0.00003  -0.00124  -0.00142   0.00125
  14        8D 0        0.00090  -0.00190  -0.00171   0.00066  -0.00295
  15        8D+1       -0.00022  -0.00185  -0.00005   0.00299  -0.00278
  16        8D-1        0.00596   0.00104  -0.00353   0.00414  -0.00548
  17        8D+2        0.00309   0.00027   0.00549  -0.00493  -0.00254
  18        8D-2        0.00264  -0.00382  -0.00466  -0.00523   0.00481
  19        9D 0       -0.00062  -0.00731  -0.00116  -0.00472   0.00706
  20        9D+1       -0.00103  -0.00020   0.00056  -0.00034   0.00047
  21        9D-1        0.00162  -0.00016  -0.00081   0.00135  -0.00153
  22        9D+2        0.00101   0.00466  -0.01125  -0.00788   0.00216
  23        9D-2       -0.00036   0.00854   0.02299   0.01151  -0.02801
  24 2   C  1S         -0.14301  -0.08861   0.09472   0.13355  -0.02785
  25        2S         -0.03353   0.06068  -0.04894  -0.01230   0.03652
  26        3S         -0.10522   0.09439  -0.10317  -0.01690   0.07400
  27        4S         -0.01985   0.00407  -0.13443  -0.00185  -0.04718
  28        5PX        -0.01721  -0.09927   0.04382  -0.01852  -0.02227
  29        5PY         0.03488  -0.14007   0.08899  -0.11580   0.09660
  30        5PZ        -0.06593   0.01517   0.04189  -0.09613   0.10916
  31        6PX         0.09821  -0.02963  -0.08406  -0.07827   0.00627
  32        6PY         0.08725  -0.03133  -0.10718  -0.06250   0.10505
  33        6PZ        -0.03824   0.00596   0.02394  -0.04967   0.05695
  34        7PX        -0.04280   0.18345   0.01969   0.06078   0.07383
  35        7PY        -0.02720   0.13222   0.01597   0.03262   0.06108
  36        7PZ        -0.00449  -0.00126   0.00264  -0.00383   0.00529
  37        8D 0        0.00090   0.00197  -0.00103   0.00108  -0.00019
  38        8D+1        0.00457  -0.00067  -0.00285   0.00334  -0.00374
  39        8D-1        0.00110   0.00126  -0.00057  -0.00260   0.00257
  40        8D+2        0.00166   0.00773   0.00164   0.00339  -0.00900
  41        8D-2       -0.00304  -0.00348  -0.00898  -0.00091   0.00102
  42        9D 0       -0.00223   0.00020   0.00077  -0.00028   0.00370
  43        9D+1        0.00316  -0.00142  -0.00166   0.00313  -0.00307
  44        9D-1        0.00287  -0.00055  -0.00119   0.00216  -0.00250
  45        9D+2       -0.03216  -0.02032   0.02536   0.01021  -0.00705
  46        9D-2        0.00962  -0.00806  -0.00437  -0.02834  -0.00422
  47 3   C  1S          0.00743   0.07736   0.17668   0.61669   0.48420
  48        2S          0.03681  -0.02342   0.03266  -0.02205   0.02585
  49        3S         -0.01623  -0.13275   0.27823  -0.13303  -0.15016
  50        4S          0.05461   0.22434   0.22867   0.11822  -0.15870
  51        5PX        -0.04516   0.17002  -0.16109   0.06773   0.02460
  52        5PY         0.02190   0.08124   0.17010   0.05136  -0.12282
  53        5PZ        -0.08981   0.01994   0.05575  -0.08685   0.09598
  54        6PX         0.15875   0.12184  -0.21229  -0.01508   0.08479
  55        6PY        -0.03344  -0.16886   0.14908  -0.11628  -0.04749
  56        6PZ        -0.04999   0.00748   0.03033  -0.04220   0.04895
  57        7PX        -0.04162   0.14640   0.05354   0.02743   0.10679
  58        7PY         0.01127  -0.04567   0.03002   0.00293  -0.04291
  59        7PZ        -0.00588   0.00135   0.00372  -0.00385   0.00476
  60        8D 0       -0.00110   0.00204  -0.00202   0.00119  -0.00056
  61        8D+1       -0.00179  -0.00047   0.00115  -0.00282   0.00376
  62        8D-1       -0.00347   0.00220   0.00218  -0.00459   0.00447
  63        8D+2       -0.00381   0.02104  -0.00554   0.00502   0.00172
  64        8D-2       -0.00174  -0.00661  -0.01229  -0.00657   0.01193
  65        9D 0        0.00051   0.00627   0.00144   0.00555   0.00396
  66        9D+1        0.00617  -0.00290  -0.00306   0.00575  -0.00562
  67        9D-1       -0.00001  -0.00085  -0.00063   0.00066   0.00005
  68        9D+2        0.01291  -0.04249  -0.04512   0.01072   0.01861
  69        9D-2        0.06175   0.03835  -0.01602  -0.00902  -0.00384
  70 4   C  1S         -0.45967   0.07499  -0.12976  -0.03790  -0.08270
  71        2S          0.07372   0.05494   0.10125   0.04304  -0.06597
  72        3S          0.07497   0.11611   0.25961   0.25165  -0.14383
  73        4S          0.09762  -0.27592  -0.14519  -0.35242   0.10439
  74        5PX         0.01089  -0.24700   0.12975  -0.04404  -0.13618
  75        5PY         0.02055  -0.05899  -0.15342   0.02372   0.01630
  76        5PZ        -0.05988   0.04657   0.03680  -0.07333   0.06379
  77        6PX         0.06212   0.01641  -0.01245   0.10423  -0.08759
  78        6PY        -0.20196  -0.19985   0.31669   0.07895  -0.15229
  79        6PZ        -0.02221   0.02186   0.01507  -0.02743   0.02157
  80        7PX        -0.07455   0.01926  -0.14516   0.04945   0.02566
  81        7PY         0.11252  -0.16647  -0.02874  -0.05507  -0.19966
  82        7PZ        -0.00542  -0.00045   0.00254  -0.00037   0.00186
  83        8D 0       -0.00507  -0.01297   0.00017  -0.00194  -0.00063
  84        8D+1        0.00146   0.00029  -0.00019   0.00102  -0.00075
  85        8D-1        0.00618   0.00143  -0.00346   0.00380  -0.00503
  86        8D+2       -0.00350   0.04122   0.00496   0.00605   0.01257
  87        8D-2       -0.00404   0.00715  -0.00956   0.00608   0.00016
  88        9D 0       -0.00670  -0.00093   0.01041   0.00649  -0.01169
  89        9D+1       -0.00486   0.00415   0.00333  -0.00759   0.00663
  90        9D-1       -0.00430   0.00277   0.00212  -0.00469   0.00423
  91        9D+2       -0.01178  -0.07215  -0.03460  -0.01942   0.01196
  92        9D-2       -0.03350  -0.07110   0.17174  -0.02820  -0.06922
  93 5   O  1S         -0.00331  -0.06550   0.04985  -0.03573  -0.06730
  94        2S         -0.01011   0.15003  -0.04731   0.11909  -0.11674
  95        3S         -0.02177   0.16418  -0.09747   0.16675  -0.15148
  96        4S         -0.05694   0.03804  -0.14425   0.15387  -0.05329
  97        5PX         0.01505   0.24549  -0.05466   0.04537   0.13856
  98        5PY         0.09188   0.20232   0.16961  -0.07384   0.11866
  99        5PZ        -0.08943   0.03016   0.04126  -0.09523   0.09326
 100        6PX         0.01992   0.11389  -0.02646   0.02215   0.06865
 101        6PY         0.05527   0.13579   0.12522  -0.05047   0.07449
 102        6PZ        -0.06157   0.02031   0.02811  -0.06556   0.06453
 103        7PX         0.01191   0.06801  -0.00617   0.02556  -0.00073
 104        7PY        -0.00281   0.01053   0.00629  -0.00468   0.03187
 105        7PZ        -0.00411   0.00216   0.00154  -0.00883   0.00737
 106        8D 0       -0.00227  -0.00830  -0.00358  -0.00103  -0.00003
 107        8D+1       -0.00064   0.00102   0.00049  -0.00126   0.00091
 108        8D-1       -0.00287   0.00096   0.00134  -0.00268   0.00277
 109        8D+2        0.00056   0.00461  -0.00210   0.00296  -0.00145
[...]
 ! A17   A(4,7,13)             119.8964         -DE/DX =    0.0                 !
 ! A18   A(8,7,13)             118.05           -DE/DX =    0.0                 !
 ! A19   A(1,8,7)              111.3247         -DE/DX =    0.0                 !
 ! A20   A(1,8,14)             126.7364         -DE/DX =    0.0                 !
 ! A21   A(7,8,14)             121.9389         -DE/DX =    0.0                 !
 ! D1    D(8,1,2,3)              0.0027         -DE/DX =    0.0                 !
 ! D2    D(2,1,8,7)             -0.0048         -DE/DX =    0.0                 !
 ! D3    D(2,1,8,14)           180.0093         -DE/DX =    0.0                 !
 ! D4    D(1,2,3,4)             -0.0008         -DE/DX =    0.0                 !
 ! D5    D(1,2,3,9)           -179.9971         -DE/DX =    0.0                 !
 ! D6    D(2,3,4,5)           -179.9989         -DE/DX =    0.0                 !
 ! D7    D(2,3,4,7)              0.0017         -DE/DX =    0.0                 !
 ! D8    D(9,3,4,5)             -0.0023         -DE/DX =    0.0                 !
 ! D9    D(9,3,4,7)            179.9984         -DE/DX =    0.0                 !
 ! D10   D(3,4,5,6)            179.965          -DE/DX =    0.0                 !
 ! D11   D(7,4,5,6)             -0.0356         -DE/DX =    0.0                 !
 ! D12   D(3,4,7,8)             -0.0045         -DE/DX =    0.0                 !
 ! D13   D(3,4,7,13)          -180.0071         -DE/DX =    0.0                 !
 ! D14   D(5,4,7,8)            179.9962         -DE/DX =    0.0                 !
 ! D15   D(5,4,7,13)            -0.0065         -DE/DX =    0.0                 !
 ! D16   D(4,5,6,10)          -179.9599         -DE/DX =    0.0                 !
 ! D17   D(4,5,6,11)            61.322          -DE/DX =    0.0                 !
 ! D18   D(4,5,6,12)           -61.2549         -DE/DX =    0.0                 !
 ! D19   D(4,7,8,1)              0.0056         -DE/DX =    0.0                 !
 ! D20   D(4,7,8,14)          -180.0078         -DE/DX =    0.0                 !
 ! D21   D(13,7,8,1)           180.0081         -DE/DX =    0.0                 !
 ! D22   D(13,7,8,14)           -0.0052         -DE/DX =    0.0                 !
 --------------------------------------------------------------------------------
 GradGradGradGradGradGradGradGradGradGradGradGradGradGradGradGradGradGrad

 Leave Link  103 at Sat Nov  5 14:25:00 2016, MaxMem=   524288000 cpu:               0.1 elap:               0.0
 (Enter /home/ubuntu/g16/l9999.exe)

 ----------------------------------------------------------------------

 Electric dipole moment (input orientation):
 (Debye = 10**-18 statcoulomb cm , SI units = C m)
                  (au)            (Debye)         (10**-30 SI)
   Tot        0.112582D+01      0.286156D+01      0.954512D+01
   x          0.844172D+00      0.214567D+01      0.715719D+01
   y         -0.736054D+00     -0.187086D+01     -0.624053D+01
   z         -0.114346D+00     -0.290638D+00     -0.969465D+00

 Dipole polarizability, Alpha (input orientation).
 (esu units = cm**3 , SI units = C**2 m**2 J**-1)
 Alpha(0;0):
               (au)            (10**-24 esu)      (10**-40 SI)
   iso        0.870487D+02      0.128993D+02      0.143524D+02
   aniso      0.491779D+02      0.728742D+01      0.810835D+01
   xx         0.108857D+03      0.161309D+02      0.179481D+02
   yx         0.192364D+00      0.285053D-01      0.317165D-01
   yy         0.967562D+02      0.143378D+02      0.159529D+02
   zx        -0.403575D+01     -0.598037D+00     -0.665406D+00
   zy         0.287998D+01      0.426769D+00      0.474844D+00
   zz         0.555330D+02      0.822914D+01      0.915616D+01

 ----------------------------------------------------------------------

 Dipole orientation:
     6         -1.61620305          1.44537911         -1.44279318
     6         -0.10965009         -0.27248457         -2.06816057
     6          1.26915026         -1.84562284         -0.51223221
     6          0.77276769         -1.28061808          2.07064934
     8          2.06595366         -2.75610069          3.75333838
     6          1.70329106         -2.34143009          6.38709586
     6         -0.92795007          0.65857687          2.79859960
     6         -2.23181898          2.14652032          1.00557711
     1          2.57968245         -3.33985845         -1.03703870
     1          2.91301626         -3.71974896          7.34327133
     1         -0.27835116         -2.66150574          6.93398177
     1          2.27911663         -0.41811571          6.93292685
     1         -1.25952934          1.03554699          4.79202182
     1         -3.53674813          3.63406541          1.56832151

 Electric dipole moment (dipole orientation):
 (Debye = 10**-18 statcoulomb cm , SI units = C m)
                  (au)            (Debye)         (10**-30 SI)
   Tot        0.112582D+01      0.286156D+01      0.954512D+01
   x          0.000000D+00      0.000000D+00      0.000000D+00
   y          0.000000D+00      0.000000D+00      0.000000D+00
   z          0.112582D+01      0.286156D+01      0.954512D+01

 Dipole polarizability, Alpha (dipole orientation).
 (esu units = cm**3 , SI units = C**2 m**2 J**-1)
 Alpha(0;0):
               (au)            (10**-24 esu)      (10**-40 SI)
   iso        0.870487D+02      0.128993D+02      0.143524D+02
   aniso      0.491779D+02      0.728742D+01      0.810835D+01
   xx         0.755223D+02      0.111912D+02      0.124519D+02
   yx        -0.233699D+02     -0.346306D+01     -0.385318D+01
   yy         0.816809D+02      0.121039D+02      0.134674D+02
   zx         0.397405D+01      0.588893D+00      0.655232D+00
   zy        -0.454582D+01     -0.673621D+00     -0.749505D+00
   zz         0.103943D+03      0.154028D+02      0.171379D+02

 ----------------------------------------------------------------------
 1\1\GINC-LC06-2-2\Freq\UB3LYP\Aug-CC-pVDZ\C7H6O1\UBUNTU\05-Nov-2016\0\
 \#P Geom=AllCheck Guess=TCheck SCRF=Check GenChk UB3LYP/Aug-CC-pVDZ Fr
 eq\\4-MeOC6H3_UB3LYP-aug-cc-pVDZ\\0,1\C,-1.3316084111,-0.3495197746,-0
 .0636889323\C,-0.7848662749,0.7779441705,-0.0266234684\C,0.5602129765,
 1.073787365,-0.1074155496\C,1.3234134342,-0.1196859932,-0.2477211886\O
 ,2.6736108729,0.0805146651,-0.3355111335\C,3.5270469975,-1.0503852436,
 -0.4775037029\C,0.7149465408,-1.4000422343,-0.2907685789\C,-0.68473254
 5,-1.5686217414,-0.1969763748\H,1.0434063086,2.0478776897,-0.076165143
 2\H,4.5444648126,-0.6499516309,-0.5257465182\H,3.3060104534,-1.6026164
 29,-1.4039322243\H,3.4398749864,-1.7264644369,0.3870551154\H,1.3312350
 22,-2.2898750498,-0.3990549869\H,-1.1498451738,-2.5523513567,-0.230357
 3138\\Version=ES64L-G16RevA.03\State=1-A\HF=-345.4712746\S2=0.\S2-1=0.
 \S2A=0.\RMSD=8.239e-09\RMSF=1.753e-05\ZeroPoint=0.1070921\Thermal=0.11
 4141\Dipole=0.8441719,-0.7360544,-0.1143459\DipoleDeriv=-0.7189569,-0.
 6269167,0.0059923,0.0234486,-0.1601693,-0.0086573,0.0510365,0.0403708,
 -0.0620965,0.200975,0.6723947,0.0320577,-0.0321076,-0.5656476,-0.03730
 77,-0.0167608,-0.0904185,0.0017781,-0.0313328,-0.0608088,-0.0141715,0.
 445225,0.3107558,-0.0006266,0.0209155,0.0375119,-0.1619527,1.5219352,-
 0.1471458,-0.1216934,0.0848528,0.0086282,-0.0085083,-0.1058254,0.00891
 49,0.0485805,-1.7736433,0.2778795,0.1348169,0.2318322,-0.4379493,-0.03
 13339,0.1317429,-0.0347337,-0.2486435,0.654894,-0.1980032,-0.0374255,-
 0.5287492,0.525753,0.0526421,-0.0602153,0.0277657,0.3453158,-0.274892,
 0.0942128,0.0139758,-0.2415768,-0.1259538,0.0216226,-0.0092658,-0.0036
 636,-0.1750461,0.3695756,0.0759132,-0.0295512,-0.0890976,0.5221738,0.0
 494414,-0.0408832,0.037049,-0.0875596,0.0540031,-0.0418678,0.0042632,-
 0.0778891,0.0020943,-0.0043501,0.0017662,-0.0070785,0.148592,-0.130364
 7,-0.0113006,0.0155296,-0.0676929,0.044302,0.0020574,0.0115923,-0.0021
 669,0.0864301,0.0180627,-0.0359598,-0.0757426,0.1019676,-0.0284174,-0.
 0683156,0.0069037,-0.0889927,-0.0927149,0.0266696,-0.0307716,0.0548757
 ,0.1125628,-0.0503557,0.0587029,-0.0083595,0.1004882,-0.0793219,0.0353
 289,0.0969774,0.0155221,0.0733167,0.0116437,-0.0152521,0.0138576,-0.01
 70339,0.149533,0.0477456,-0.0646033,0.001551,-0.0360925,-0.0568578,-0.
 0101147,0.0034953,-0.0080126,0.1271057\Polar=108.8570201,0.1923636,96.
 7562043,-4.0357521,2.8799767,55.5330191\Quadrupole=-0.1231558,2.442062
 3,-2.3189065,-0.1617559,-0.1774805,0.3455663\PG=C01 [X(C7H6O1)]\NImag=
 0\\0.28480761,0.19072349,0.97930613,-0.00453400,0.05019230,0.05271259,
 -0.12712011,-0.28781851,-0.01263694,0.54403627,-0.32640529,-0.60832231
 ,-0.01555389,0.38640691,0.73906085,-0.01531647,-0.01846322,-0.02990752
 ,-0.01016804,0.01848789,0.05519604,-0.03033503,-0.07596471,-0.00347862
 ,-0.33088063,-0.06889795,0.01783929,0.64432469,0.00396910,0.00399819,0
 .00042929,-0.11694849,-0.08474583,0.00505301,0.12913826,0.66834558,0.0
 0206925,0.00644549,-0.00619660,0.01450420,0.00143785,-0.03163669,-0.03
 193506,0.02963850,0.10572913,-0.00594425,0.00509297,0.00015222,-0.0532
 9267,0.00431036,0.00506335,-0.12211847,0.09455875,0.01102548,0.6227859
 2,-0.01149108,-0.08205482,-0.00422582,0.07753851,0.05055570,-0.0030255
 4,0.02787159,-0.24313202,-0.01460706,0.00311594,0.62855804,-0.00100588
 ,-0.00547951,-0.00898016,0.01015315,0.00249286,0.00939091,0.00639315,-
 0.01962761,-0.06468395,-0.03484620,0.03246925,0.16187221,-0.00586712,-
 0.00503535,0.00025890,-0.00014723,0.00450195,0.00044683,-0.05045112,0.
 01007589,0.00511242,-0.26601291,-0.05034824,0.01353229,0.50825943,0.00
 599740,0.00604096,-0.00019267,-0.00137234,-0.00338929,-0.00024362,0.03
 880644,0.00688177,-0.00301259,-0.01160843,-0.10962152,-0.00392569,-0.0
 7776048,0.33963940,0.00102809,0.00064598,0.00224226,0.00003141,-0.0006
 8992,0.00157074,0.00710895,-0.00085077,0.00757495,0.01619040,-0.001007
 69,-0.04141526,-0.03879234,0.02485983,0.06840017,0.00063785,0.00087548
 ,0.00018336,-0.00094467,0.00050758,0.00013994,-0.00105796,-0.00483586,
 -0.00010004,-0.04469037,0.03198736,0.00514751,-0.11943953,0.04137809,0
 .00763418,0.55919335,-0.00286239,-0.00066407,0.00001425,-0.00078611,-0
 .00102599,-0.00004253,-0.00293159,0.00154828,0.00018513,0.00990838,0.0
 0730779,0.00013712,0.07470271,-0.18027505,-0.01419029,0.08273573,0.496
 64212,-0.00007461,-0.00026877,0.00223411,0.00005129,-0.00013938,0.0004
 2735,0.00003597,0.00032545,0.00210464,0.00362924,-0.00152659,-0.005860
 96,0.00992000,-0.01167727,-0.05737761,0.00602018,-0.01073354,0.5618540
 5,-0.03668945,0.08672760,0.00974567,-0.04449859,-0.03579057,0.00070427
 ,0.04812923,-0.00788790,-0.00371304,-0.13883693,-0.01247483,0.00416210
 ,-0.03266765,-0.04037493,0.00020664,0.00213343,-0.00810385,-0.00080474
 ,0.64978297,0.02276069,0.02672813,-0.00074980,-0.02386571,-0.04405689,
 -0.00110643,0.03711159,-0.03942395,-0.00595880,-0.07782657,-0.24777427
 ,-0.00633126,-0.01341357,-0.00210752,0.00035105,0.00023046,0.00126918,
 0.00015126,-0.05150041,0.66682866,0.00530823,-0.00556493,0.01202580,0.
 00152907,-0.00020882,-0.00232898,-0.00058764,-0.00256811,0.00597844,-0
 .00037784,-0.01125612,-0.07288024,0.00208908,0.00238537,0.00741538,-0.
 00023304,0.00077670,-0.00108821,-0.04325740,0.04163266,0.12949700,-0.0
 8198573,0.07116162,0.00878762,0.02490657,0.05381438,0.00099227,-0.0464
 2786,0.00808146,0.00500427,-0.02129616,-0.07679915,-0.00330224,0.00057
 885,0.00403552,0.00049290,-0.00037137,0.00033634,-0.00006254,-0.295612
 79,-0.00167522,0.01801449,0.54506014,0.12410878,-0.30983541,-0.0287066
 3,-0.03097084,-0.04824891,-0.00021679,0.02342484,-0.01825836,-0.003901
 72,-0.02305238,0.02924300,0.00337772,0.00107167,-0.00971464,-0.0009885
 7,0.00196449,0.00003297,-0.00004160,-0.06682418,-0.11066221,0.00117241
 ,0.05887548,0.74758555,0.01246493,-0.02471788,-0.03347284,-0.00489284,
 -0.00661326,-0.01158343,0.00606967,-0.00274572,0.01190009,0.00042356,0
 .00742370,0.00611975,0.00028465,-0.00120806,0.00322399,0.00005180,0.00
 007893,-0.00147196,0.01348975,-0.00373409,-0.05637554,-0.02880367,0.03
 997062,0.11323528,-0.00074305,-0.00223123,0.00058680,-0.01403416,-0.02
 410353,-0.00089449,-0.10485588,-0.11391910,-0.00235878,0.00915667,0.01
 508840,0.00070968,0.00123536,-0.00069224,-0.00035044,0.00007594,-0.000
 04270,-0.00006998,-0.00120039,0.00181300,0.00075598,-0.00166474,0.0007
 2056,0.00011032,0.11129577,-0.00113847,0.00270139,-0.00035888,-0.00022
 206,0.00139840,0.00037055,-0.11101730,-0.29005215,-0.00961793,-0.01323
 317,-0.01651575,-0.00047419,-0.00125240,0.00177563,0.00041041,0.000428
 68,0.00002167,0.00002610,0.00308614,-0.00147012,-0.00083216,0.00109712
 ,0.00034291,0.00000109,0.12310968,0.30221116,0.00066437,-0.00027748,0.
 00903458,0.00076324,0.00217030,-0.00360028,-0.00215904,-0.00940051,-0.
 03162446,-0.00125545,-0.00260714,0.00458127,-0.00038887,0.00036795,-0.
 00272962,-0.00003724,0.00006102,-0.00080371,0.00084470,-0.00073554,0.0
 0705675,0.00013482,0.00002976,-0.00087471,0.00172488,0.01027644,0.0212
 7532,-0.00040112,0.00003052,0.00003039,-0.00027278,0.00005343,0.000017
 38,-0.00072826,-0.00038761,0.00004455,0.00161597,0.00328601,0.00013230
 ,-0.02729376,0.00044311,0.00211901,-0.27675648,-0.09808522,0.01017306,
 0.00022405,0.00015500,0.00003502,0.00006436,0.00013937,0.00001402,-0.0
 0001545,0.00003938,0.00000414,0.30788012,0.00035619,0.00046411,0.00000
 702,-0.00012888,0.00002354,0.00001776,0.00115502,0.00028922,-0.0000827
 6,0.00212381,-0.00395812,-0.00045788,0.03803050,0.00494510,-0.00254202
 ,-0.11215604,-0.09038114,0.00554960,-0.00038288,-0.00130434,-0.0001002
 4,0.00036788,-0.00000814,-0.00003713,-0.00001923,-0.00001862,0.0000000
 8,0.09930623,0.09871839,0.00005240,0.00003143,-0.00003341,0.00000511,0
 .00000443,-0.00009185,0.00015059,0.00003375,0.00021546,0.00006006,-0.0
 0054891,0.00037345,0.00471216,0.00027162,0.00021856,0.00919960,0.00449
 662,-0.04994019,-0.00000095,-0.00013998,0.00053876,0.00002974,-0.00001
 981,0.00012603,0.00000010,-0.00000455,0.00000390,-0.01272242,-0.003732
 20,0.04620075,-0.00004560,-0.00102049,-0.00040826,0.00087564,0.0006415
 3,-0.00001661,-0.00120986,0.00074341,-0.00033568,0.00524253,0.00085404
 ,0.00151632,-0.00161378,0.01894764,0.02039524,-0.06378440,-0.03195921,
 -0.05412230,0.00044798,-0.00090153,-0.00001007,-0.00081253,0.00029709,
 -0.00006581,0.00002746,-0.00010834,0.00018223,-0.00387913,-0.01232790,
 -0.02454732,0.06468428,0.00043736,0.00037710,0.00009561,-0.00020778,-0
 .00006651,0.00010506,0.00085245,-0.00062377,0.00028429,-0.00584874,-0.
 00014282,0.00015363,0.00789847,-0.02595536,-0.02418015,-0.02782662,-0.
 10155113,-0.09852425,0.00042078,0.00053142,0.00039524,0.00011915,-0.00
 002169,-0.00013110,-0.00005801,0.00016046,-0.00016744,-0.00326206,-0.0
 0419108,-0.01024871,0.02457655,0.12059994,0.00024422,0.00032489,-0.000
 10771,-0.00021639,0.00026053,0.00003626,0.00041976,-0.00010302,-0.0001
 1223,-0.00248725,-0.00058494,0.00061338,0.00645339,-0.00556302,0.00317
 320,-0.04994893,-0.10197012,-0.23488193,-0.00002463,-0.00105685,-0.000
 13971,0.00008947,0.00021929,0.00014854,-0.00005112,0.00008613,0.000000
 20,0.00034774,0.00238664,0.00259336,0.05184606,0.11663592,0.24812782,-
 0.00002843,-0.00109830,0.00024516,0.00089606,0.00059631,-0.00003156,-0
 .00118181,0.00068175,0.00059424,0.00523544,0.00116965,-0.00207393,-0.0
 0512797,0.02174953,-0.01604051,-0.05261040,-0.02066917,0.02525069,0.00
 043652,-0.00071637,-0.00018180,-0.00079224,0.00023877,0.00024466,0.000
 00581,-0.00009218,-0.00019617,-0.00034661,-0.01590123,0.02311326,0.001
 40410,0.00316401,-0.00705529,0.05368695,0.00045350,0.00041913,-0.00008
 715,-0.00024090,-0.00001096,-0.00007583,0.00083329,-0.00057331,-0.0004
 7635,-0.00605313,-0.00023473,0.00062739,0.01176908,-0.02913220,0.01795
 025,-0.01655243,-0.13196474,0.11704871,0.00036031,0.00042411,-0.000376
 28,0.00013772,-0.00000246,0.00009076,-0.00003729,0.00014473,0.00019339
 ,-0.00174390,-0.00532365,0.00977874,0.00038238,0.01047263,-0.01147476,
 0.01093971,0.15523940,-0.00019908,-0.00009150,-0.00016566,0.00005232,-
 0.00035794,-0.00003919,-0.00014515,-0.00006751,-0.00019000,0.00097338,
 0.00032156,0.00072041,-0.00355651,-0.00224099,0.00985335,0.02164373,0.
 12111456,-0.21560151,-0.00000097,0.00125525,-0.00001951,0.00006901,-0.
 00027963,0.00010768,0.00004467,-0.00005247,0.00003699,-0.00017404,-0.0
 0112052,0.00018897,0.00418125,0.01535193,-0.01922825,-0.02266383,-0.13
 309640,0.22445271,-0.00305912,0.00143913,0.00050208,-0.00269070,0.0020
 8496,0.00073340,-0.00188425,-0.00446111,-0.00007330,0.01143027,-0.0108
 5827,-0.00150937,-0.00044549,0.00192247,0.00000216,-0.00282679,-0.0019
 1675,0.00011901,-0.14404871,0.13342118,0.01786720,-0.01314856,0.023217
 74,0.00290630,0.00053075,-0.00062264,-0.00007502,-0.00005915,-0.000457
 05,-0.00005791,-0.00132635,-0.00031527,0.00032701,-0.00154757,-0.00030
 706,-0.00017902,0.15802396,-0.00031776,0.00124188,-0.00004775,-0.00183
 314,0.00111967,-0.00014060,-0.00170175,-0.00424623,-0.00025341,0.01823
 203,-0.01470227,-0.00249324,0.00011881,0.00084284,0.00020088,0.0010776
 3,-0.00073973,-0.00016982,0.13104902,-0.25001792,-0.02516376,-0.004517
 17,0.00449934,0.00037400,0.00068140,-0.00062366,-0.00010190,0.00004607
 ,0.00072205,0.00007530,-0.00012768,0.00037607,0.00083447,-0.00007561,0
 .00050876,-0.00073528,-0.14299589,0.26053167,0.00037955,-0.00018116,0.
 00222988,0.00046219,-0.00043337,0.00506489,0.00011765,-0.00004516,0.00
 123638,0.00051128,-0.00029809,0.00135237,-0.00012395,0.00006417,-0.002
 16503,0.00032908,0.00005392,0.00053254,0.01770157,-0.02534344,-0.03312
 264,0.00098052,-0.00171741,0.00382586,0.00001539,-0.00000372,0.0001046
 5,-0.00002304,0.00011344,-0.00040518,0.00130441,0.00024370,-0.00021013
 ,-0.00112820,-0.00011311,-0.00012420,-0.02019783,0.02736116,0.02528296
 ,0.00677356,0.01711778,0.00056565,0.00316701,0.00227994,0.00049045,-0.
 00132279,0.00119145,0.00016150,-0.00327503,0.00106005,0.00099113,-0.00
 100708,-0.00147179,-0.00002569,0.00044143,-0.00032616,-0.00006528,-0.0
 0759965,-0.02559253,-0.00095129,-0.10849793,-0.11321137,-0.00229734,0.
 00018591,-0.00007444,-0.00020660,-0.00003176,0.00003358,0.00000558,-0.
 00001034,0.00004970,0.00005596,-0.00002985,0.00005871,-0.00004574,0.00
 105171,0.00036402,-0.00032862,0.11015480,-0.00659152,-0.02040040,-0.00
 081588,0.00044933,-0.00229148,-0.00071971,0.00131982,-0.00000742,-0.00
 008064,0.00028019,0.00247179,-0.00046861,-0.00035903,0.00006986,0.0000
 3101,0.00018544,-0.00022015,-0.00001990,0.00169570,0.00103572,-0.00029
 196,-0.11503513,-0.28495194,-0.00875187,-0.00030971,-0.00007605,0.0001
 9107,-0.00002035,0.00002269,0.00000227,0.00000251,0.00003475,0.0000048
 3,0.00001314,0.00003331,-0.00000108,-0.00015145,0.00048754,0.00029905,
 0.11852106,0.30379177,-0.00108099,-0.00259565,-0.00161531,0.00036224,-
 0.00085729,0.00750175,0.00017049,-0.00007159,-0.00029514,0.00093779,-0
 .00052662,0.00879681,0.00005196,0.00011496,0.00001493,-0.00003012,0.00
 001823,-0.00012660,0.00094702,0.00176598,0.00344271,-0.00242666,-0.008
 89764,-0.03490872,-0.00022302,0.00017317,-0.00246089,0.00000188,-0.000
 00179,0.00001140,0.00008053,-0.00001373,-0.00001281,-0.00007671,0.0000
 1063,0.00000821,-0.00036472,0.00025993,-0.00360234,0.00165031,0.010621
 42,0.02324601\\0.00000611,0.00001041,-0.00000023,-0.00001560,-0.000011
 29,-0.00000248,0.00001698,-0.00000849,-0.00000275,0.00003119,0.0000336
 9,0.00000005,-0.00003858,0.00002420,0.00000157,0.00003583,-0.00004667,
 -0.00002949,-0.00004142,-0.00002370,-0.00000118,0.00001747,-0.00000539
 ,0.00001305,-0.00000297,-0.00000331,0.00000122,-0.00000394,0.00000088,
 0.00001191,-0.00000817,0.00001327,0.00000680,-0.00000106,0.00000659,0.
 00000953,0.00000352,0.00000302,-0.00000197,0.00000063,0.00000678,-0.00
 000604\\\@


 AN AIRPLANE IS A COLLECTION OF SPARE PARTS
 FLYING IN CLOSE FORMATION.
 Job cpu time:       0 days  1 hours 28 minutes 56.8 seconds.
 Elapsed time:       0 days  0 hours 12 minutes 42.5 seconds.
 File lengths (MBytes):  RWF=    154 Int=      0 D2E=      0 Chk=      7 Scr=      1
 Normal termination of Gaussian 16 at Sat Nov  5 14:25:01 2016.
