 Entering Gaussian System, Link 0=/home/ubuntu/g16/g16
 Input=4-NO2C6H3_UB3LYP-aug-cc-pVDZ-Opt.gjf
 Output=4-NO2C6H3_UB3LYP-aug-cc-pVDZ-Opt.log
 Initial command:
 /home/ubuntu/g16/l1.exe "/home/ubuntu/g16/Gau-24303.inp" -scrdir="/home/ubuntu/g16/"
 Entering Link 1 = /home/ubuntu/g16/l1.exe PID=     24305.
  
 Copyright (c) 1988,1990,1992,1993,1995,1998,2003,2009,2016,
            Gaussian, Inc.  All Rights Reserved.
  
 This is part of the Gaussian(R) 16 program.  It is based on
 the Gaussian(R) 09 system (copyright 2009, Gaussian, Inc.),
 the Gaussian(R) 03 system (copyright 2003, Gaussian, Inc.),
 the Gaussian(R) 98 system (copyright 1998, Gaussian, Inc.),
 the Gaussian(R) 94 system (copyright 1995, Gaussian, Inc.),
 the Gaussian 92(TM) system (copyright 1992, Gaussian, Inc.),
 the Gaussian 90(TM) system (copyright 1990, Gaussian, Inc.),
 the Gaussian 88(TM) system (copyright 1988, Gaussian, Inc.),
 the Gaussian 86(TM) system (copyright 1986, Carnegie Mellon
 University), and the Gaussian 82(TM) system (copyright 1983,
 Carnegie Mellon University). Gaussian is a federally registered
 trademark of Gaussian, Inc.
  
 This software contains proprietary and confidential information,
 including trade secrets, belonging to Gaussian, Inc.
  
 This software is provided under written license and may be
 used, copied, transmitted, or stored only in accord with that
 written license.
  
 The following legend is applicable only to US Government
 contracts under FAR:
  
                    RESTRICTED RIGHTS LEGEND
  
 Use, reproduction and disclosure by the US Government is
 subject to restrictions as set forth in subparagraphs (a)
 and (c) of the Commercial Computer Software - Restricted
 Rights clause in FAR 52.227-19.
  
 Gaussian, Inc.
 340 Quinnipiac St., Bldg. 40, Wallingford CT 06492
  
  
 ---------------------------------------------------------------
 Warning -- This program may not be used in any manner that
 competes with the business of Gaussian, Inc. or will provide
 assistance to any competitor of Gaussian, Inc.  The licensee
 of this program is prohibited from giving any competitor of
 Gaussian, Inc. access to this program.  By using this program,
 the user acknowledges that Gaussian, Inc. is engaged in the
 business of creating and licensing software in the field of
 computational chemistry and represents and warrants to the
 licensee that it is not a competitor of Gaussian, Inc. and that
 it will not use this program in any manner prohibited above.
 ---------------------------------------------------------------
  

 Cite this work as:
 Gaussian 16, Revision A.03,
 M. J. Frisch, G. W. Trucks, H. B. Schlegel, G. E. Scuseria, 
 M. A. Robb, J. R. Cheeseman, G. Scalmani, V. Barone, 
 G. A. Petersson, H. Nakatsuji, X. Li, M. Caricato, A. V. Marenich, 
 J. Bloino, B. G. Janesko, R. Gomperts, B. Mennucci, H. P. Hratchian, 
 J. V. Ortiz, A. F. Izmaylov, J. L. Sonnenberg, D. Williams-Young, 
 F. Ding, F. Lipparini, F. Egidi, J. Goings, B. Peng, A. Petrone, 
 T. Henderson, D. Ranasinghe, V. G. Zakrzewski, J. Gao, N. Rega, 
 G. Zheng, W. Liang, M. Hada, M. Ehara, K. Toyota, R. Fukuda, 
 J. Hasegawa, M. Ishida, T. Nakajima, Y. Honda, O. Kitao, H. Nakai, 
 T. Vreven, K. Throssell, J. A. Montgomery, Jr., J. E. Peralta, 
 F. Ogliaro, M. J. Bearpark, J. J. Heyd, E. N. Brothers, K. N. Kudin, 
 V. N. Staroverov, T. A. Keith, R. Kobayashi, J. Normand, 
 K. Raghavachari, A. P. Rendell, J. C. Burant, S. S. Iyengar, 
 J. Tomasi, M. Cossi, J. M. Millam, M. Klene, C. Adamo, R. Cammi, 
 J. W. Ochterski, R. L. Martin, K. Morokuma, O. Farkas, 
 J. B. Foresman, and D. J. Fox, Gaussian, Inc., Wallingford CT, 2016.
 
 ******************************************
 Gaussian 16:  ES64L-G16RevA.03 25-Dec-2016
                 5-Nov-2016 
 ******************************************
 %chk=4-NO2C6H3_UB3LYP-aug-cc-pVDZ-Opt.chk
 %mem=500MW
 %nproc=7
 Will use up to    7 processors via shared memory.
 ----------------------------------------------------------------------
 #p opt=(maxcycles=777) freq ub3lyp/aug-cc-pVDZ pop=(Bonding,AllOrbital
 s,mk,no,nboread)
 ----------------------------------------------------------------------
 1/6=777,18=20,19=15,26=3,38=1/1,3;
 2/9=110,12=2,17=6,18=5,40=1/2;
 3/5=16,7=10,11=2,25=1,30=1,71=1,74=-5,116=2/1,2,3;
 4//1;
 5/5=2,38=5/2;
 6/7=2,8=2,9=2,10=2,15=8,20=1,22=-1,27=20,28=1,31=1,40=2,96=-1/1,2,7;
 7//1,2,3,16;
 1/6=777,18=20,19=15,26=3/3(2);
 2/9=110/2;
 99//99;
 2/9=110/2;
 3/5=16,7=10,11=2,25=1,30=1,71=1,74=-5,116=2/1,2,3;
 4/5=5,16=3,69=1/1;
 5/5=2,38=5/2;
 7//1,2,3,16;
 1/6=777,18=20,19=15,26=3/3(-5);
 2/9=110/2;
 6/7=2,8=2,9=2,10=2,15=8,19=2,20=1,22=-1,27=20,28=1,31=1,40=2,96=-1/1,2,7;
 99/9=1/99;
 Leave Link    1 at Sat Nov  5 15:20:46 2016, MaxMem=   524288000 cpu:               0.3 elap:               0.0
 (Enter /home/ubuntu/g16/l101.exe)
 ----------------------------
 4-NO2C6H3_UB3LYP-aug-cc-pVDZ
 ----------------------------
 Symbolic Z-matrix:
 Charge =  0 Multiplicity = 1
 C                    -1.20773  -0.42203  -0.01313 
 C                    -0.7428    0.73599  -0.11701 
 C                     0.59006   1.09983  -0.15398 
 C                     1.39097  -0.06365  -0.05632 
 N                     2.86004   0.11421  -0.07998 
 O                     3.29026   1.26034  -0.1753 
 O                     3.56387  -0.88936  -0.00413 
 C                     0.88055  -1.37326   0.06134 
 C                    -0.50717  -1.61646   0.08898 
 H                     1.02273   2.09158  -0.2435 
 H                     1.58476  -2.19932   0.13357 
 H                    -0.92427  -2.61624   0.18201 
 
 ITRead=  0  0  0  0  0  0  0  0  0  0  0  0
 MicOpt= -1 -1 -1 -1 -1 -1 -1 -1 -1 -1 -1 -1
 NAtoms=     12 NQM=       12 NQMF=       0 NMMI=      0 NMMIF=      0
                NMic=       0 NMicF=      0.
                    Isotopes and Nuclear Properties:
 (Nuclear quadrupole moments (NQMom) in fm**2, nuclear magnetic moments (NMagM)
  in nuclear magnetons)

  Atom         1           2           3           4           5           6           7           8           9          10
 IAtWgt=          12          12          12          12          14          16          16          12          12           1
 AtmWgt=  12.0000000  12.0000000  12.0000000  12.0000000  14.0030740  15.9949146  15.9949146  12.0000000  12.0000000   1.0078250
 NucSpn=           0           0           0           0           2           0           0           0           0           1
 AtZEff=  -0.0000000  -0.0000000  -0.0000000  -0.0000000  -0.0000000  -0.0000000  -0.0000000  -0.0000000  -0.0000000  -0.0000000
 NQMom=    0.0000000   0.0000000   0.0000000   0.0000000   2.0440000   0.0000000   0.0000000   0.0000000   0.0000000   0.0000000
 NMagM=    0.0000000   0.0000000   0.0000000   0.0000000   0.4037610   0.0000000   0.0000000   0.0000000   0.0000000   2.7928460
 AtZNuc=   6.0000000   6.0000000   6.0000000   6.0000000   7.0000000   8.0000000   8.0000000   6.0000000   6.0000000   1.0000000

  Atom        11          12
 IAtWgt=           1           1
 AtmWgt=   1.0078250   1.0078250
 NucSpn=           1           1
 AtZEff=  -0.0000000  -0.0000000
 NQMom=    0.0000000   0.0000000
 NMagM=    2.7928460   2.7928460
 AtZNuc=   1.0000000   1.0000000
 Leave Link  101 at Sat Nov  5 15:20:47 2016, MaxMem=   524288000 cpu:               1.3 elap:               0.2
 (Enter /home/ubuntu/g16/l103.exe)

 GradGradGradGradGradGradGradGradGradGradGradGradGradGradGradGradGradGrad
 Berny optimization.
 Initialization pass.
                           ----------------------------
                           !    Initial Parameters    !
                           ! (Angstroms and Degrees)  !
 --------------------------                            --------------------------
 ! Name  Definition              Value          Derivative Info.                !
 --------------------------------------------------------------------------------
 ! R1    R(1,2)                  1.2522         estimate D2E/DX2                !
 ! R2    R(1,9)                  1.3885         estimate D2E/DX2                !
 ! R3    R(2,3)                  1.3821         estimate D2E/DX2                !
 ! R4    R(3,4)                  1.4159         estimate D2E/DX2                !
 ! R5    R(3,10)                 1.0857         estimate D2E/DX2                !
 ! R6    R(4,5)                  1.48           estimate D2E/DX2                !
 ! R7    R(4,8)                  1.4105         estimate D2E/DX2                !
 ! R8    R(5,6)                  1.2279         estimate D2E/DX2                !
 ! R9    R(5,7)                  1.2281         estimate D2E/DX2                !
 ! R10   R(8,9)                  1.4091         estimate D2E/DX2                !
 ! R11   R(8,11)                 1.0879         estimate D2E/DX2                !
 ! R12   R(9,12)                 1.0873         estimate D2E/DX2                !
 ! A1    A(2,1,9)              127.9023         estimate D2E/DX2                !
 ! A2    A(1,2,3)              127.1377         estimate D2E/DX2                !
 ! A3    A(2,3,4)              109.1073         estimate D2E/DX2                !
 ! A4    A(2,3,10)             128.8273         estimate D2E/DX2                !
 ! A5    A(4,3,10)             122.0653         estimate D2E/DX2                !
 ! A6    A(3,4,5)              117.4928         estimate D2E/DX2                !
 ! A7    A(3,4,8)              124.3349         estimate D2E/DX2                !
 ! A8    A(5,4,8)              118.1722         estimate D2E/DX2                !
 ! A9    A(4,5,6)              117.4641         estimate D2E/DX2                !
 ! A10   A(4,5,7)              118.0133         estimate D2E/DX2                !
 ! A11   A(6,5,7)              124.5225         estimate D2E/DX2                !
 ! A12   A(4,8,9)              121.2154         estimate D2E/DX2                !
 ! A13   A(4,8,11)             118.4447         estimate D2E/DX2                !
 ! A14   A(9,8,11)             120.3397         estimate D2E/DX2                !
 ! A15   A(1,9,8)              110.3023         estimate D2E/DX2                !
 ! A16   A(1,9,12)             127.1389         estimate D2E/DX2                !
 ! A17   A(8,9,12)             122.5585         estimate D2E/DX2                !
 ! D1    D(9,1,2,3)             -0.038          estimate D2E/DX2                !
 ! D2    D(2,1,9,8)             -0.0137         estimate D2E/DX2                !
 ! D3    D(2,1,9,12)           179.7842         estimate D2E/DX2                !
 ! D4    D(1,2,3,4)              0.0888         estimate D2E/DX2                !
 ! D5    D(1,2,3,10)           179.971          estimate D2E/DX2                !
 ! D6    D(2,3,4,5)            179.9014         estimate D2E/DX2                !
 ! D7    D(2,3,4,8)             -0.098          estimate D2E/DX2                !
 ! D8    D(10,3,4,5)             0.0097         estimate D2E/DX2                !
 ! D9    D(10,3,4,8)          -179.9898         estimate D2E/DX2                !
 ! D10   D(3,4,5,6)              0.3967         estimate D2E/DX2                !
 ! D11   D(3,4,5,7)           -179.5622         estimate D2E/DX2                !
 ! D12   D(8,4,5,6)           -179.6039         estimate D2E/DX2                !
 ! D13   D(8,4,5,7)              0.4373         estimate D2E/DX2                !
 ! D14   D(3,4,8,9)              0.0612         estimate D2E/DX2                !
 ! D15   D(3,4,8,11)          -179.7831         estimate D2E/DX2                !
 ! D16   D(5,4,8,9)           -179.9382         estimate D2E/DX2                !
 ! D17   D(5,4,8,11)             0.2175         estimate D2E/DX2                !
 ! D18   D(4,8,9,1)              0.0009         estimate D2E/DX2                !
 ! D19   D(4,8,9,12)          -179.808          estimate D2E/DX2                !
 ! D20   D(11,8,9,1)           179.8423         estimate D2E/DX2                !
 ! D21   D(11,8,9,12)            0.0334         estimate D2E/DX2                !
 --------------------------------------------------------------------------------
 Trust Radius=3.00D-01 FncErr=1.00D-07 GrdErr=1.00D-06 EigMax=2.50D+02 EigMin=1.00D-04
 Number of steps in this run=    100 maximum allowed number of steps=    100.
 GradGradGradGradGradGradGradGradGradGradGradGradGradGradGradGradGradGrad

 Leave Link  103 at Sat Nov  5 15:20:47 2016, MaxMem=   524288000 cpu:               0.0 elap:               0.0
 (Enter /home/ubuntu/g16/l202.exe)
                          Input orientation:                          
 ---------------------------------------------------------------------
 Center     Atomic      Atomic             Coordinates (Angstroms)
 Number     Number       Type             X           Y           Z
 ---------------------------------------------------------------------
      1          6           0       -1.207730   -0.422030   -0.013130
      2          6           0       -0.742800    0.735990   -0.117010
      3          6           0        0.590060    1.099830   -0.153980
      4          6           0        1.390970   -0.063650   -0.056320
      5          7           0        2.860040    0.114210   -0.079980
      6          8           0        3.290260    1.260340   -0.175300
      7          8           0        3.563870   -0.889360   -0.004130
      8          6           0        0.880550   -1.373260    0.061340
      9          6           0       -0.507170   -1.616460    0.088980
     10          1           0        1.022730    2.091580   -0.243500
     11          1           0        1.584760   -2.199320    0.133570
     12          1           0       -0.924270   -2.616240    0.182010
 ---------------------------------------------------------------------
                    Distance matrix (angstroms):
                    1          2          3          4          5
     1  C    0.000000
     2  C    1.252183   0.000000
     3  C    2.359649   1.382122   0.000000
     4  C    2.623651   2.279492   1.415867   0.000000
     5  N    4.103508   3.656287   2.475830   1.479987   0.000000
     6  O    4.805058   4.067421   2.705050   2.318277   1.227921
     7  O    4.794439   4.604553   3.580905   2.325084   1.228122
     8  C    2.295931   2.667585   2.499384   1.410479   2.480105
     9  C    1.388479   2.373178   2.939587   2.456678   3.789706
    10  H    3.368421   2.229511   1.085719   2.194460   2.704152
    11  H    3.313349   3.754513   3.457818   2.152835   2.650352
    12  H    2.221033   3.370429   4.026818   3.454396   4.673863
                    6          7          8          9         10
     6  O    0.000000
     7  O    2.173792   0.000000
     8  C    3.577506   2.727389   0.000000
     9  C    4.771404   4.136509   1.409141   0.000000
    10  H    2.416051   3.924372   3.481129   4.025009   0.000000
    11  H    3.869545   2.377358   1.087890   2.172069   4.343948
    12  H    5.737404   4.812501   2.194752   1.087284   5.112283
                   11         12
    11  H    0.000000
    12  H    2.543895   0.000000
 Stoichiometry    C6H3NO2
 Framework group  C1[X(C6H3NO2)]
 Deg. of freedom    30
 Full point group                 C1      NOp   1
 Largest Abelian subgroup         C1      NOp   1
 Largest concise Abelian subgroup C1      NOp   1
                         Standard orientation:                         
 ---------------------------------------------------------------------
 Center     Atomic      Atomic             Coordinates (Angstroms)
 Number     Number       Type             X           Y           Z
 ---------------------------------------------------------------------
      1          6           0        2.487097   -0.225607   -0.001333
      2          6           0        1.796528   -1.270151   -0.003105
      3          6           0        0.417238   -1.358581   -0.001527
      4          6           0       -0.130877   -0.053113    0.000460
      5          7           0       -1.605850    0.068599    0.000108
      6          8           0       -2.259843   -0.970657    0.005657
      7          8           0       -2.091551    1.196577   -0.006464
      8          6           0        0.635042    1.131291    0.002728
      9          6           0        2.043581    1.090127    0.001891
     10          1           0       -0.207972   -2.246215   -0.003410
     11          1           0        0.113185    2.085830    0.007758
     12          1           0        2.655238    1.989038    0.006668
 ---------------------------------------------------------------------
 Rotational constants (GHZ):           4.1056855           1.3837250           1.0349338
 Leave Link  202 at Sat Nov  5 15:20:47 2016, MaxMem=   524288000 cpu:               0.0 elap:               0.0
 (Enter /home/ubuntu/g16/l301.exe)
 Standard basis: Aug-CC-pVDZ (5D, 7F)
 Ernie: Thresh=  0.10000D-02 Tol=  0.10000D-05 Strict=F.
 Ernie:  18 primitive shells out of 246 were deleted.
 There are   252 symmetry adapted cartesian basis functions of A   symmetry.
 There are   234 symmetry adapted basis functions of A   symmetry.
   234 basis functions,   420 primitive gaussians,   252 cartesian basis functions
    31 alpha electrons       31 beta electrons
       nuclear repulsion energy       391.7370920473 Hartrees.
 IExCor=  402 DFT=T Ex+Corr=B3LYP ExCW=0 ScaHFX=  0.200000
 ScaDFX=  0.800000  0.720000  1.000000  0.810000 ScalE2=  1.000000  1.000000
 IRadAn=      5 IRanWt=     -1 IRanGd=            0 ICorTp=0 IEmpDi=  4
 NAtoms=   12 NActive=   12 NUniq=   12 SFac= 1.00D+00 NAtFMM=   60 NAOKFM=F Big=F
 Integral buffers will be    131072 words long.
 Raffenetti 2 integral format.
 Two-electron integral symmetry is turned on.
 Leave Link  301 at Sat Nov  5 15:20:47 2016, MaxMem=   524288000 cpu:               0.2 elap:               0.0
 (Enter /home/ubuntu/g16/l302.exe)
 NPDir=0 NMtPBC=     1 NCelOv=     1 NCel=       1 NClECP=     1 NCelD=      1
         NCelK=      1 NCelE2=     1 NClLst=     1 CellRange=     0.0.
 One-electron integrals computed using PRISM.
 One-electron integral symmetry used in STVInt
 NBasis=   234 RedAO= T EigKep=  3.52D-06  NBF=   234
 NBsUse=   234 1.00D-06 EigRej= -1.00D+00 NBFU=   234
 Precomputing XC quadrature grid using
 IXCGrd= 4 IRadAn=           5 IRanWt=          -1 IRanGd=           0 AccXCQ= 0.00D+00.
 Generated NRdTot=       0 NPtTot=           0 NUsed=           0 NTot=          32
 NSgBfM=   252   252   252   252   252 MxSgAt=    12 MxSgA2=    12.
 Leave Link  302 at Sat Nov  5 15:20:47 2016, MaxMem=   524288000 cpu:               2.0 elap:               0.3
 (Enter /home/ubuntu/g16/l303.exe)
 DipDrv:  MaxL=1.
 Leave Link  303 at Sat Nov  5 15:20:47 2016, MaxMem=   524288000 cpu:               0.3 elap:               0.0
 (Enter /home/ubuntu/g16/l401.exe)
 ExpMin= 2.97D-02 ExpMax= 1.17D+04 ExpMxC= 4.01D+02 IAcc=3 IRadAn=         5 AccDes= 0.00D+00
 Harris functional with IExCor=  402 and IRadAn=       5 diagonalized for initial guess.
 HarFok:  IExCor=  402 AccDes= 0.00D+00 IRadAn=         5 IDoV= 1 UseB2=F ITyADJ=14
 ICtDFT=  3500011 ScaDFX=  1.000000  1.000000  1.000000  1.000000
 FoFCou: FMM=F IPFlag=           0 FMFlag=      100000 FMFlg1=           0
         NFxFlg=           0 DoJE=T BraDBF=F KetDBF=T FulRan=T
         wScrn=  0.000000 ICntrl=       500 IOpCl=  0 I1Cent=   200000004 NGrid=           0
         NMat0=    1 NMatS0=      1 NMatT0=    0 NMatD0=    1 NMtDS0=    0 NMtDT0=    0
 Petite list used in FoFCou.
 Harris En= -435.489670942214    
 JPrj=0 DoOrth=F DoCkMO=F.
 Initial guess <Sx>= 0.0000 <Sy>= 0.0000 <Sz>= 0.0000 <S**2>=-0.0000 S=-0.0000
 Leave Link  401 at Sat Nov  5 15:20:49 2016, MaxMem=   524288000 cpu:              12.3 elap:               1.8
 (Enter /home/ubuntu/g16/l502.exe)
 Integral symmetry usage will be decided dynamically.
 UHF open shell SCF:
 Using DIIS extrapolation, IDIIS=  1040.
 NGot=   524288000 LenX=   524156866 LenY=   524092921
 Requested convergence on RMS density matrix=1.00D-08 within 128 cycles.
 Requested convergence on MAX density matrix=1.00D-06.
 Requested convergence on             energy=1.00D-06.
 No special actions if energy rises.
 Fock matrices will be formed incrementally for  20 cycles.

 Cycle   1  Pass 1  IDiag  1:
 FoFJK:  IHMeth= 1 ICntrl=       0 DoSepK=F KAlg= 0 I1Cent=           0 FoldK=F
 IRaf= 990000000 NMat=       1 IRICut=       1 DoRegI=T DoRafI=F ISym2E= 0 IDoP0=0 IntGTp=1.
 FoFCou: FMM=F IPFlag=           0 FMFlag=      100000 FMFlg1=           0
         NFxFlg=           0 DoJE=F BraDBF=F KetDBF=F FulRan=T
         wScrn=  0.000000 ICntrl=         0 IOpCl=  1 I1Cent=           0 NGrid=           0
         NMat0=    1 NMatS0=      1 NMatT0=    0 NMatD0=    1 NMtDS0=    0 NMtDT0=    0
 Symmetry not used in FoFCou.
 E= -435.228471096545    
 DIIS: error= 2.65D-02 at cycle   1 NSaved=   1.
 NSaved= 1 IEnMin= 1 EnMin= -435.228471096545     IErMin= 1 ErrMin= 2.65D-02
 ErrMax= 2.65D-02  0.00D+00 EMaxC= 1.00D-01 BMatC= 1.15D+00 BMatP= 1.15D+00
 IDIUse=3 WtCom= 7.35D-01 WtEn= 2.65D-01
 Coeff-Com:  0.100D+01
 Coeff-En:   0.100D+01
 Coeff:      0.100D+01
 Gap=     0.210 Goal=   None    Shift=    0.000
 Gap=     0.210 Goal=   None    Shift=    0.000
 GapD=    0.210 DampG=1.000 DampE=0.500 DampFc=0.5000 IDamp=-1.
 Damping current iteration by 5.00D-01
 RMSDP=3.13D-02 MaxDP=1.04D+00              OVMax= 3.56D-01

 Cycle   2  Pass 1  IDiag  1:
 RMSU=  8.63D-03    CP:  8.29D-01
 E= -435.270655174967     Delta-E=       -0.042184078421 Rises=F Damp=T
 DIIS: error= 1.70D-02 at cycle   2 NSaved=   2.
 NSaved= 2 IEnMin= 2 EnMin= -435.270655174967     IErMin= 2 ErrMin= 1.70D-02
 ErrMax= 1.70D-02  0.00D+00 EMaxC= 1.00D-01 BMatC= 2.47D-01 BMatP= 1.15D+00
 IDIUse=3 WtCom= 8.30D-01 WtEn= 1.70D-01
 Coeff-Com:  0.288D+00 0.712D+00
 Coeff-En:   0.422D+00 0.578D+00
 Coeff:      0.311D+00 0.689D+00
 Gap=     0.181 Goal=   None    Shift=    0.000
 Gap=     0.181 Goal=   None    Shift=    0.000
 RMSDP=1.33D-02 MaxDP=5.11D-01 DE=-4.22D-02 OVMax= 2.37D-01

 Cycle   3  Pass 1  IDiag  1:
 RMSU=  5.19D-03    CP:  6.75D-01  1.39D+00
 E= -435.457112819547     Delta-E=       -0.186457644580 Rises=F Damp=F
 DIIS: error= 6.16D-03 at cycle   3 NSaved=   3.
 NSaved= 3 IEnMin= 3 EnMin= -435.457112819547     IErMin= 3 ErrMin= 6.16D-03
 ErrMax= 6.16D-03  0.00D+00 EMaxC= 1.00D-01 BMatC= 5.08D-02 BMatP= 2.47D-01
 IDIUse=3 WtCom= 9.38D-01 WtEn= 6.16D-02
 Coeff-Com:  0.119D+00 0.329D+00 0.552D+00
 Coeff-En:   0.000D+00 0.000D+00 0.100D+01
 Coeff:      0.112D+00 0.308D+00 0.580D+00
 Gap=     0.190 Goal=   None    Shift=    0.000
 Gap=     0.190 Goal=   None    Shift=    0.000
 RMSDP=2.97D-03 MaxDP=1.42D-01 DE=-1.86D-01 OVMax= 7.38D-02

 Cycle   4  Pass 1  IDiag  1:
 RMSU=  1.76D-03    CP:  6.90D-01  1.21D+00  7.44D-01
 E= -435.461390266038     Delta-E=       -0.004277446491 Rises=F Damp=F
 DIIS: error= 4.93D-03 at cycle   4 NSaved=   4.
 NSaved= 4 IEnMin= 4 EnMin= -435.461390266038     IErMin= 4 ErrMin= 4.93D-03
 ErrMax= 4.93D-03  0.00D+00 EMaxC= 1.00D-01 BMatC= 3.52D-02 BMatP= 5.08D-02
 IDIUse=3 WtCom= 9.51D-01 WtEn= 4.93D-02
 Coeff-Com:  0.482D-01 0.122D+00 0.429D+00 0.400D+00
 Coeff-En:   0.000D+00 0.000D+00 0.428D+00 0.572D+00
 Coeff:      0.458D-01 0.116D+00 0.429D+00 0.409D+00
 Gap=     0.185 Goal=   None    Shift=    0.000
 Gap=     0.185 Goal=   None    Shift=    0.000
 RMSDP=8.80D-04 MaxDP=4.44D-02 DE=-4.28D-03 OVMax= 5.92D-02

 Cycle   5  Pass 1  IDiag  1:
 RMSU=  6.34D-04    CP:  6.89D-01  1.21D+00  7.93D-01  6.90D-01
 E= -435.469644655747     Delta-E=       -0.008254389709 Rises=F Damp=F
 DIIS: error= 2.54D-03 at cycle   5 NSaved=   5.
 NSaved= 5 IEnMin= 5 EnMin= -435.469644655747     IErMin= 5 ErrMin= 2.54D-03
 ErrMax= 2.54D-03  0.00D+00 EMaxC= 1.00D-01 BMatC= 5.85D-03 BMatP= 3.52D-02
 IDIUse=3 WtCom= 9.75D-01 WtEn= 2.54D-02
 Coeff-Com:  0.151D-01 0.263D-01 0.225D+00 0.313D+00 0.421D+00
 Coeff-En:   0.000D+00 0.000D+00 0.000D+00 0.163D+00 0.837D+00
 Coeff:      0.147D-01 0.256D-01 0.219D+00 0.309D+00 0.431D+00
 Gap=     0.182 Goal=   None    Shift=    0.000
 Gap=     0.182 Goal=   None    Shift=    0.000
 RMSDP=4.03D-04 MaxDP=1.67D-02 DE=-8.25D-03 OVMax= 2.15D-02

 Cycle   6  Pass 1  IDiag  1:
 RMSU=  2.37D-04    CP:  6.89D-01  1.23D+00  8.05D-01  6.54D-01  5.57D-01
 E= -435.471113364203     Delta-E=       -0.001468708457 Rises=F Damp=F
 DIIS: error= 5.16D-04 at cycle   6 NSaved=   6.
 NSaved= 6 IEnMin= 6 EnMin= -435.471113364203     IErMin= 6 ErrMin= 5.16D-04
 ErrMax= 5.16D-04  0.00D+00 EMaxC= 1.00D-01 BMatC= 4.65D-04 BMatP= 5.85D-03
 IDIUse=3 WtCom= 9.95D-01 WtEn= 5.16D-03
 Coeff-Com:  0.320D-02 0.399D-03 0.844D-01 0.142D+00 0.277D+00 0.492D+00
 Coeff-En:   0.000D+00 0.000D+00 0.000D+00 0.000D+00 0.563D-01 0.944D+00
 Coeff:      0.319D-02 0.397D-03 0.840D-01 0.142D+00 0.276D+00 0.495D+00
 Gap=     0.182 Goal=   None    Shift=    0.000
 Gap=     0.182 Goal=   None    Shift=    0.000
 RMSDP=1.22D-04 MaxDP=5.32D-03 DE=-1.47D-03 OVMax= 4.06D-03

 Cycle   7  Pass 1  IDiag  1:
 RMSU=  8.81D-05    CP:  6.88D-01  1.23D+00  8.00D-01  6.75D-01  6.03D-01
                    CP:  7.74D-01
 E= -435.471214108204     Delta-E=       -0.000100744000 Rises=F Damp=F
 DIIS: error= 2.47D-04 at cycle   7 NSaved=   7.
 NSaved= 7 IEnMin= 7 EnMin= -435.471214108204     IErMin= 7 ErrMin= 2.47D-04
 ErrMax= 2.47D-04  0.00D+00 EMaxC= 1.00D-01 BMatC= 7.90D-05 BMatP= 4.65D-04
 IDIUse=3 WtCom= 9.98D-01 WtEn= 2.47D-03
 Coeff-Com:  0.772D-03-0.231D-02 0.350D-01 0.651D-01 0.147D+00 0.344D+00
 Coeff-Com:  0.410D+00
 Coeff-En:   0.000D+00 0.000D+00 0.000D+00 0.000D+00 0.000D+00 0.111D+00
 Coeff-En:   0.889D+00
 Coeff:      0.770D-03-0.231D-02 0.349D-01 0.649D-01 0.146D+00 0.344D+00
 Coeff:      0.411D+00
 Gap=     0.182 Goal=   None    Shift=    0.000
 Gap=     0.182 Goal=   None    Shift=    0.000
 RMSDP=4.12D-05 MaxDP=1.32D-03 DE=-1.01D-04 OVMax= 2.70D-03

 Cycle   8  Pass 1  IDiag  1:
 RMSU=  3.54D-05    CP:  6.88D-01  1.23D+00  8.01D-01  6.72D-01  6.03D-01
                    CP:  7.69D-01  8.12D-01
 E= -435.471228127080     Delta-E=       -0.000014018876 Rises=F Damp=F
 DIIS: error= 1.26D-04 at cycle   8 NSaved=   8.
 NSaved= 8 IEnMin= 8 EnMin= -435.471228127080     IErMin= 8 ErrMin= 1.26D-04
 ErrMax= 1.26D-04  0.00D+00 EMaxC= 1.00D-01 BMatC= 1.82D-05 BMatP= 7.90D-05
 IDIUse=3 WtCom= 9.99D-01 WtEn= 1.26D-03
 Coeff-Com:  0.364D-04-0.198D-02 0.116D-01 0.249D-01 0.646D-01 0.180D+00
 Coeff-Com:  0.324D+00 0.397D+00
 Coeff-En:   0.000D+00 0.000D+00 0.000D+00 0.000D+00 0.000D+00 0.000D+00
 Coeff-En:   0.195D+00 0.805D+00
 Coeff:      0.364D-04-0.198D-02 0.116D-01 0.248D-01 0.645D-01 0.180D+00
 Coeff:      0.323D+00 0.397D+00
 Gap=     0.182 Goal=   None    Shift=    0.000
 Gap=     0.182 Goal=   None    Shift=    0.000
 RMSDP=1.92D-05 MaxDP=5.81D-04 DE=-1.40D-05 OVMax= 9.87D-04

 Cycle   9  Pass 1  IDiag  1:
 RMSU=  1.07D-05    CP:  6.88D-01  1.23D+00  8.02D-01  6.71D-01  6.00D-01
                    CP:  7.68D-01  7.24D-01  6.56D-01
 E= -435.471231721175     Delta-E=       -0.000003594095 Rises=F Damp=F
 DIIS: error= 2.55D-05 at cycle   9 NSaved=   9.
 NSaved= 9 IEnMin= 9 EnMin= -435.471231721175     IErMin= 9 ErrMin= 2.55D-05
 ErrMax= 2.55D-05  0.00D+00 EMaxC= 1.00D-01 BMatC= 6.43D-07 BMatP= 1.82D-05
 IDIUse=1 WtCom= 1.00D+00 WtEn= 0.00D+00
 Coeff-Com: -0.507D-04-0.101D-02 0.329D-02 0.832D-02 0.238D-01 0.702D-01
 Coeff-Com:  0.143D+00 0.222D+00 0.531D+00
 Coeff:     -0.507D-04-0.101D-02 0.329D-02 0.832D-02 0.238D-01 0.702D-01
 Coeff:      0.143D+00 0.222D+00 0.531D+00
 Gap=     0.182 Goal=   None    Shift=    0.000
 Gap=     0.182 Goal=   None    Shift=    0.000
 RMSDP=5.46D-06 MaxDP=1.77D-04 DE=-3.59D-06 OVMax= 2.21D-04

 Cycle  10  Pass 1  IDiag  1:
 RMSU=  3.70D-06    CP:  6.88D-01  1.23D+00  8.02D-01  6.72D-01  6.01D-01
                    CP:  7.65D-01  7.42D-01  6.20D-01  7.77D-01
 E= -435.471231870236     Delta-E=       -0.000000149061 Rises=F Damp=F
 DIIS: error= 8.23D-06 at cycle  10 NSaved=  10.
 NSaved=10 IEnMin=10 EnMin= -435.471231870236     IErMin=10 ErrMin= 8.23D-06
 ErrMax= 8.23D-06  0.00D+00 EMaxC= 1.00D-01 BMatC= 7.80D-08 BMatP= 6.43D-07
 IDIUse=1 WtCom= 1.00D+00 WtEn= 0.00D+00
 Coeff-Com: -0.707D-05-0.182D-03-0.170D-03 0.185D-03 0.147D-02 0.558D-02
 Coeff-Com:  0.182D-01 0.490D-01 0.290D+00 0.635D+00
 Coeff:     -0.707D-05-0.182D-03-0.170D-03 0.185D-03 0.147D-02 0.558D-02
 Coeff:      0.182D-01 0.490D-01 0.290D+00 0.635D+00
 Gap=     0.182 Goal=   None    Shift=    0.000
 Gap=     0.182 Goal=   None    Shift=    0.000
 RMSDP=1.86D-06 MaxDP=6.26D-05 DE=-1.49D-07 OVMax= 7.06D-05

 Cycle  11  Pass 1  IDiag  1:
 RMSU=  1.14D-06    CP:  6.88D-01  1.23D+00  8.02D-01  6.72D-01  6.02D-01
                    CP:  7.67D-01  7.38D-01  6.39D-01  8.19D-01  7.45D-01
 E= -435.471231891603     Delta-E=       -0.000000021366 Rises=F Damp=F
 DIIS: error= 1.48D-06 at cycle  11 NSaved=  11.
 NSaved=11 IEnMin=11 EnMin= -435.471231891603     IErMin=11 ErrMin= 1.48D-06
 ErrMax= 1.48D-06  0.00D+00 EMaxC= 1.00D-01 BMatC= 2.43D-09 BMatP= 7.80D-08
 IDIUse=1 WtCom= 1.00D+00 WtEn= 0.00D+00
 Coeff-Com:  0.795D-05-0.264D-04-0.188D-03-0.313D-03-0.646D-03-0.136D-02
 Coeff-Com: -0.258D-03 0.701D-02 0.752D-01 0.227D+00 0.693D+00
 Coeff:      0.795D-05-0.264D-04-0.188D-03-0.313D-03-0.646D-03-0.136D-02
 Coeff:     -0.258D-03 0.701D-02 0.752D-01 0.227D+00 0.693D+00
 Gap=     0.182 Goal=   None    Shift=    0.000
 Gap=     0.182 Goal=   None    Shift=    0.000
 RMSDP=4.05D-07 MaxDP=1.82D-05 DE=-2.14D-08 OVMax= 1.73D-05

 Cycle  12  Pass 1  IDiag  1:
 RMSU=  3.28D-07    CP:  6.88D-01  1.23D+00  8.02D-01  6.72D-01  6.02D-01
                    CP:  7.67D-01  7.39D-01  6.41D-01  8.21D-01  7.78D-01
                    CP:  8.75D-01
 E= -435.471231891991     Delta-E=       -0.000000000388 Rises=F Damp=F
 DIIS: error= 1.10D-06 at cycle  12 NSaved=  12.
 NSaved=12 IEnMin=12 EnMin= -435.471231891991     IErMin=12 ErrMin= 1.10D-06
 ErrMax= 1.10D-06  0.00D+00 EMaxC= 1.00D-01 BMatC= 9.33D-10 BMatP= 2.43D-09
 IDIUse=1 WtCom= 1.00D+00 WtEn= 0.00D+00
 Coeff-Com:  0.673D-05-0.150D-05-0.996D-04-0.219D-03-0.580D-03-0.142D-02
 Coeff-Com: -0.203D-02-0.699D-03 0.158D-01 0.731D-01 0.439D+00 0.478D+00
 Coeff:      0.673D-05-0.150D-05-0.996D-04-0.219D-03-0.580D-03-0.142D-02
 Coeff:     -0.203D-02-0.699D-03 0.158D-01 0.731D-01 0.439D+00 0.478D+00
 Gap=     0.182 Goal=   None    Shift=    0.000
 Gap=     0.182 Goal=   None    Shift=    0.000
 RMSDP=2.11D-07 MaxDP=7.25D-06 DE=-3.88D-10 OVMax= 7.76D-06

 Cycle  13  Pass 1  IDiag  1:
 RMSU=  1.25D-07    CP:  6.88D-01  1.23D+00  8.02D-01  6.72D-01  6.02D-01
                    CP:  7.67D-01  7.40D-01  6.41D-01  8.26D-01  7.89D-01
                    CP:  9.06D-01  5.98D-01
 E= -435.471231892250     Delta-E=       -0.000000000260 Rises=F Damp=F
 DIIS: error= 1.08D-07 at cycle  13 NSaved=  13.
 NSaved=13 IEnMin=13 EnMin= -435.471231892250     IErMin=13 ErrMin= 1.08D-07
 ErrMax= 1.08D-07  0.00D+00 EMaxC= 1.00D-01 BMatC= 1.76D-11 BMatP= 9.33D-10
 IDIUse=1 WtCom= 1.00D+00 WtEn= 0.00D+00
 Coeff-Com:  0.190D-05 0.165D-05-0.113D-04-0.430D-04-0.127D-03-0.316D-03
 Coeff-Com: -0.593D-03-0.103D-02-0.344D-02-0.491D-02 0.532D-01 0.115D+00
 Coeff-Com:  0.843D+00
 Coeff:      0.190D-05 0.165D-05-0.113D-04-0.430D-04-0.127D-03-0.316D-03
 Coeff:     -0.593D-03-0.103D-02-0.344D-02-0.491D-02 0.532D-01 0.115D+00
 Coeff:      0.843D+00
 Gap=     0.182 Goal=   None    Shift=    0.000
 Gap=     0.182 Goal=   None    Shift=    0.000
 RMSDP=4.96D-08 MaxDP=2.66D-06 DE=-2.60D-10 OVMax= 1.34D-06

 Cycle  14  Pass 1  IDiag  1:
 RMSU=  3.29D-08    CP:  6.88D-01  1.23D+00  8.02D-01  6.72D-01  6.02D-01
                    CP:  7.67D-01  7.40D-01  6.41D-01  8.27D-01  7.91D-01
                    CP:  9.23D-01  6.19D-01  9.88D-01
 E= -435.471231892244     Delta-E=        0.000000000006 Rises=F Damp=F
 DIIS: error= 6.21D-08 at cycle  14 NSaved=  14.
 NSaved=14 IEnMin=13 EnMin= -435.471231892250     IErMin=14 ErrMin= 6.21D-08
 ErrMax= 6.21D-08  0.00D+00 EMaxC= 1.00D-01 BMatC= 3.66D-12 BMatP= 1.76D-11
 IDIUse=1 WtCom= 1.00D+00 WtEn= 0.00D+00
 Coeff-Com:  0.696D-06 0.609D-06-0.170D-05-0.120D-04-0.376D-04-0.881D-04
 Coeff-Com: -0.189D-03-0.446D-03-0.227D-02-0.531D-02 0.101D-01 0.370D-01
 Coeff-Com:  0.438D+00 0.523D+00
 Coeff:      0.696D-06 0.609D-06-0.170D-05-0.120D-04-0.376D-04-0.881D-04
 Coeff:     -0.189D-03-0.446D-03-0.227D-02-0.531D-02 0.101D-01 0.370D-01
 Coeff:      0.438D+00 0.523D+00
 Gap=     0.182 Goal=   None    Shift=    0.000
 Gap=     0.182 Goal=   None    Shift=    0.000
 RMSDP=1.57D-08 MaxDP=8.83D-07 DE= 6.25D-12 OVMax= 4.34D-07

 Cycle  15  Pass 1  IDiag  1:
 RMSU=  1.16D-08    CP:  6.88D-01  1.23D+00  8.02D-01  6.72D-01  6.02D-01
                    CP:  7.67D-01  7.40D-01  6.41D-01  8.27D-01  7.91D-01
                    CP:  9.21D-01  6.17D-01  1.02D+00  7.84D-01
 E= -435.471231892255     Delta-E=       -0.000000000011 Rises=F Damp=F
 DIIS: error= 1.36D-08 at cycle  15 NSaved=  15.
 NSaved=15 IEnMin=15 EnMin= -435.471231892255     IErMin=15 ErrMin= 1.36D-08
 ErrMax= 1.36D-08  0.00D+00 EMaxC= 1.00D-01 BMatC= 2.74D-13 BMatP= 3.66D-12
 IDIUse=1 WtCom= 1.00D+00 WtEn= 0.00D+00
 Coeff-Com: -0.886D-07 0.903D-07 0.113D-05 0.295D-05 0.710D-05 0.209D-04
 Coeff-Com:  0.237D-04-0.130D-04-0.439D-03-0.159D-02-0.671D-02-0.831D-02
 Coeff-Com:  0.190D-01 0.215D+00 0.783D+00
 Coeff:     -0.886D-07 0.903D-07 0.113D-05 0.295D-05 0.710D-05 0.209D-04
 Coeff:      0.237D-04-0.130D-04-0.439D-03-0.159D-02-0.671D-02-0.831D-02
 Coeff:      0.190D-01 0.215D+00 0.783D+00
 Gap=     0.182 Goal=   None    Shift=    0.000
 Gap=     0.182 Goal=   None    Shift=    0.000
 RMSDP=4.80D-09 MaxDP=2.38D-07 DE=-1.11D-11 OVMax= 1.00D-07

 SCF Done:  E(UB3LYP) =  -435.471231892     A.U. after   15 cycles
            NFock= 15  Conv=0.48D-08     -V/T= 2.0060
 <Sx>= 0.0000 <Sy>= 0.0000 <Sz>= 0.0000 <S**2>=-0.0000 S=-0.0000
 <L.S>= 0.000000000000E+00
 KE= 4.328573846647D+02 PE=-1.799207048256D+03 EE= 5.391413396518D+02
 Annihilation of the first spin contaminant:
 S**2 before annihilation    -0.0000,   after    -0.0000
 Leave Link  502 at Sat Nov  5 15:22:40 2016, MaxMem=   524288000 cpu:             776.3 elap:             110.9
 (Enter /home/ubuntu/g16/l601.exe)
 Copying SCF densities to generalized density rwf, IOpCl= 1 IROHF=0.

 **********************************************************************

            Population analysis using the SCF density.

 **********************************************************************

 Orbital symmetries:
 Alpha Orbitals:
       Occupied  (A) (A) (A) (A) (A) (A) (A) (A) (A) (A) (A) (A)
                 (A) (A) (A) (A) (A) (A) (A) (A) (A) (A) (A) (A)
                 (A) (A) (A) (A) (A) (A) (A)
       Virtual   (A) (A) (A) (A) (A) (A) (A) (A) (A) (A) (A) (A)
                 (A) (A) (A) (A) (A) (A) (A) (A) (A) (A) (A) (A)
                 (A) (A) (A) (A) (A) (A) (A) (A) (A) (A) (A) (A)
                 (A) (A) (A) (A) (A) (A) (A) (A) (A) (A) (A) (A)
                 (A) (A) (A) (A) (A) (A) (A) (A) (A) (A) (A) (A)
                 (A) (A) (A) (A) (A) (A) (A) (A) (A) (A) (A) (A)
                 (A) (A) (A) (A) (A) (A) (A) (A) (A) (A) (A) (A)
                 (A) (A) (A) (A) (A) (A) (A) (A) (A) (A) (A) (A)
                 (A) (A) (A) (A) (A) (A) (A) (A) (A) (A) (A) (A)
                 (A) (A) (A) (A) (A) (A) (A) (A) (A) (A) (A) (A)
                 (A) (A) (A) (A) (A) (A) (A) (A) (A) (A) (A) (A)
                 (A) (A) (A) (A) (A) (A) (A) (A) (A) (A) (A) (A)
                 (A) (A) (A) (A) (A) (A) (A) (A) (A) (A) (A) (A)
                 (A) (A) (A) (A) (A) (A) (A) (A) (A) (A) (A) (A)
                 (A) (A) (A) (A) (A) (A) (A) (A) (A) (A) (A) (A)
                 (A) (A) (A) (A) (A) (A) (A) (A) (A) (A) (A) (A)
                 (A) (A) (A) (A) (A) (A) (A) (A) (A) (A) (A)
 Beta  Orbitals:
       Occupied  (A) (A) (A) (A) (A) (A) (A) (A) (A) (A) (A) (A)
                 (A) (A) (A) (A) (A) (A) (A) (A) (A) (A) (A) (A)
                 (A) (A) (A) (A) (A) (A) (A)
       Virtual   (A) (A) (A) (A) (A) (A) (A) (A) (A) (A) (A) (A)
                 (A) (A) (A) (A) (A) (A) (A) (A) (A) (A) (A) (A)
                 (A) (A) (A) (A) (A) (A) (A) (A) (A) (A) (A) (A)
                 (A) (A) (A) (A) (A) (A) (A) (A) (A) (A) (A) (A)
                 (A) (A) (A) (A) (A) (A) (A) (A) (A) (A) (A) (A)
                 (A) (A) (A) (A) (A) (A) (A) (A) (A) (A) (A) (A)
                 (A) (A) (A) (A) (A) (A) (A) (A) (A) (A) (A) (A)
                 (A) (A) (A) (A) (A) (A) (A) (A) (A) (A) (A) (A)
                 (A) (A) (A) (A) (A) (A) (A) (A) (A) (A) (A) (A)
                 (A) (A) (A) (A) (A) (A) (A) (A) (A) (A) (A) (A)
                 (A) (A) (A) (A) (A) (A) (A) (A) (A) (A) (A) (A)
                 (A) (A) (A) (A) (A) (A) (A) (A) (A) (A) (A) (A)
                 (A) (A) (A) (A) (A) (A) (A) (A) (A) (A) (A) (A)
                 (A) (A) (A) (A) (A) (A) (A) (A) (A) (A) (A) (A)
                 (A) (A) (A) (A) (A) (A) (A) (A) (A) (A) (A) (A)
                 (A) (A) (A) (A) (A) (A) (A) (A) (A) (A) (A) (A)
                 (A) (A) (A) (A) (A) (A) (A) (A) (A) (A) (A)
 The electronic state is 1-A.
     Natural Orbital Coefficients:
                           1         2         3         4         5
     Eigenvalues --     2.00000   2.00000   2.00000   2.00000   2.00000
   1 1   C  1S          0.03757  -0.25782   0.27532  -0.07969  -0.03905
   2        2S         -0.02635   0.20411  -0.16578  -0.00153   0.07908
   3        3S         -0.05642   0.38850  -0.34912   0.03179   0.20996
   4        4S         -0.03329   0.18179  -0.14979  -0.01611  -0.00904
   5        5PX         0.01127  -0.00793   0.01952  -0.02289   0.03677
   6        5PY         0.00544  -0.05520  -0.09113  -0.05801   0.26554
   7        5PZ         0.00908   0.00140  -0.01206   0.01853  -0.01067
   8        6PX         0.00031   0.03723   0.01316  -0.00147  -0.04545
   9        6PY         0.00113  -0.04019  -0.12481  -0.03506  -0.04011
  10        6PZ         0.00816   0.00132  -0.00681   0.00797  -0.00420
  11        7PX         0.00693  -0.01677   0.04782   0.00636   0.00311
  12        7PY        -0.02203   0.05494  -0.01708   0.03467  -0.16816
  13        7PZ        -0.00445  -0.00043  -0.00073   0.00066  -0.00056
  14        8D 0        0.00106  -0.00545   0.00539  -0.00040  -0.00170
  15        8D+1        0.00011   0.00003   0.00030  -0.00100   0.00080
  16        8D-1        0.00052  -0.00031   0.00026  -0.00236   0.00046
  17        8D+2        0.00092  -0.00989   0.00913  -0.00013  -0.00142
  18        8D-2       -0.00184   0.00363  -0.00076   0.00112  -0.00366
  19        9D 0        0.00090  -0.00702   0.00254   0.00044  -0.00729
  20        9D+1       -0.00161  -0.00011   0.00005   0.00017   0.00003
  21        9D-1        0.00213   0.00016  -0.00003  -0.00018   0.00039
  22        9D+2        0.00712  -0.04659   0.02928  -0.00739   0.01458
  23        9D-2        0.00103   0.00537   0.02141   0.00206   0.02646
  24 2   C  1S          0.00819   0.00420  -0.01911   0.14282   0.01314
  25        2S         -0.02244   0.05822  -0.05605   0.02808   0.04212
  26        3S         -0.03497   0.00244  -0.03949   0.06027   0.08589
  27        4S          0.03758  -0.17418   0.19696   0.02948   0.00583
  28        5PX         0.00083   0.14304  -0.02686   0.03577  -0.22765
  29        5PY        -0.02277   0.13720  -0.01062   0.03198  -0.08687
  30        5PZ        -0.00203   0.00341  -0.00928   0.03713  -0.01769
  31        6PX         0.03631  -0.12966   0.02011  -0.06247  -0.19015
  32        6PY         0.00751  -0.07803  -0.01765  -0.02840  -0.06607
  33        6PZ        -0.00738   0.00165  -0.00503   0.02030  -0.00994
  34        7PX        -0.02356   0.05379  -0.05228   0.02100  -0.13106
  35        7PY        -0.00272  -0.02511  -0.00605   0.00576  -0.04659
  36        7PZ         0.00579   0.00127  -0.00091   0.00215  -0.00054
  37        8D 0        0.00085  -0.00271   0.00218   0.00058  -0.00282
  38        8D+1        0.00203   0.00012  -0.00059  -0.00123   0.00103
  39        8D-1        0.00054   0.00010  -0.00057   0.00087  -0.00059
  40        8D+2        0.00059  -0.00686   0.00907  -0.00162   0.00616
  41        8D-2        0.00051  -0.00228  -0.00917   0.00122  -0.00745
  42        9D 0       -0.00147   0.00862  -0.00327   0.00311  -0.00593
  43        9D+1        0.00340  -0.00011  -0.00002  -0.00044   0.00150
  44        9D-1        0.00127  -0.00002  -0.00010   0.00030  -0.00010
  45        9D+2       -0.00328   0.01235   0.00219   0.01215   0.00932
  46        9D-2        0.00377  -0.02017   0.01676  -0.00614  -0.01660
  47 3   C  1S          0.00017   0.00508  -0.14398   0.31029  -0.05904
  48        2S          0.00050  -0.06650   0.10410  -0.01336   0.06531
  49        3S         -0.03409   0.13369   0.36318   0.01600   0.02730
  50        4S         -0.07491   0.41314  -0.18708  -0.04347   0.22197
  51        5PX        -0.01627  -0.06022  -0.08034  -0.00965   0.21045
  52        5PY        -0.03181   0.24658   0.15096   0.02341   0.11870
  53        5PZ        -0.03342  -0.00085   0.00433   0.03171  -0.02438
  54        6PX         0.03782  -0.11816  -0.07020  -0.08755  -0.13312
  55        6PY        -0.02390   0.14168   0.20897   0.04897  -0.08464
  56        6PZ        -0.00021   0.00094   0.00259   0.01610  -0.00837
  57        7PX        -0.01372   0.00336  -0.05876   0.00612  -0.14548
  58        7PY        -0.00087   0.05176   0.00171  -0.01818   0.05091
  59        7PZ        -0.00766  -0.00116   0.00071   0.00128  -0.00022
  60        8D 0        0.00034  -0.00023  -0.00152   0.00025   0.00042
  61        8D+1        0.00230   0.00047  -0.00079   0.00194  -0.00050
  62        8D-1       -0.00473  -0.00074   0.00081   0.00042  -0.00122
  63        8D+2       -0.00066  -0.00250  -0.00510   0.00173   0.00913
  64        8D-2        0.00001  -0.00739  -0.00722  -0.00108  -0.00919
  65        9D 0        0.00114  -0.01076   0.00655   0.00457   0.00920
  66        9D+1        0.01342   0.00134  -0.00058   0.00007   0.00216
  67        9D-1        0.01007   0.00109  -0.00018  -0.00068   0.00163
  68        9D+2        0.01400  -0.05077  -0.03100  -0.02902  -0.05050
  69        9D-2       -0.00261   0.06364  -0.01218  -0.00478  -0.00366
  70 4   C  1S          0.00728  -0.01443   0.06991  -0.04799   0.04326
  71        2S          0.00384   0.01667   0.00966  -0.02881   0.01429
  72        3S          0.02077  -0.06912  -0.11027  -0.10502   0.01146
  73        4S          0.05453  -0.24173   0.30238   0.16444   0.08474
  74        5PX        -0.00949  -0.00033   0.02465  -0.04746  -0.05017
  75        5PY         0.01784  -0.20661  -0.24606  -0.05096  -0.06654
  76        5PZ        -0.11128  -0.01723   0.01739   0.00245  -0.02244
  77        6PX        -0.01385   0.04385   0.02569  -0.05847   0.03010
  78        6PY        -0.03119   0.04409   0.13481   0.01242   0.02254
  79        6PZ        -0.03573  -0.00629   0.00977   0.00048  -0.01176
  80        7PX         0.01416  -0.01812   0.07793   0.00963   0.04918
  81        7PY         0.00536   0.08040   0.04911  -0.01799   0.38005
  82        7PZ         0.01658   0.00193   0.00075  -0.00058   0.00115
  83        8D 0       -0.00044   0.00136  -0.00033   0.00182  -0.00342
  84        8D+1        0.01671   0.00186  -0.00035   0.00032  -0.00043
  85        8D-1       -0.00074  -0.00068   0.00048  -0.00248   0.00108
  86        8D+2       -0.00001  -0.00103  -0.01445   0.00193   0.00118
  87        8D-2        0.00279  -0.01254  -0.00430  -0.00082  -0.01077
  88        9D 0       -0.00157   0.01174  -0.00710  -0.00861   0.00035
  89        9D+1       -0.03710  -0.00462   0.00196   0.00065  -0.00235
  90        9D-1        0.00429  -0.00084   0.00076  -0.00242   0.00365
  91        9D+2       -0.01579   0.03845   0.07224   0.06649  -0.02532
  92        9D-2       -0.02072   0.14959   0.12076   0.02883  -0.03438
  93 5   N  1S          0.02386  -0.17770  -0.10277   0.77828   0.04946
  94        2S          0.00115   0.04758  -0.07700  -0.02027   0.05143
  95        3S          0.00747   0.06400  -0.06675  -0.09157   0.09307
  96        4S          0.00150   0.06782  -0.00096  -0.07920   0.00848
  97        5PX         0.00910  -0.01494  -0.06551   0.02471   0.00503
  98        5PY        -0.01777   0.21595  -0.02924  -0.00184  -0.20060
  99        5PZ        -0.48068  -0.05733   0.01415  -0.00235  -0.00536
 100        6PX        -0.00091   0.01353  -0.03874  -0.01436   0.00790
 101        6PY        -0.01797   0.10890   0.06114   0.03681  -0.09132
 102        6PZ        -0.24216  -0.02878   0.00736  -0.00105  -0.00386
 103        7PX        -0.00132  -0.00308  -0.00338  -0.01166   0.01180
 104        7PY        -0.00623   0.03848   0.03483   0.02318  -0.11691
 105        7PZ        -0.03766  -0.00437   0.00091   0.00002  -0.00094
 106        8D 0        0.00024  -0.00180   0.00259   0.00326   0.00063
 107        8D+1        0.01253   0.00114   0.00047  -0.00006  -0.00028
 108        8D-1        0.00051  -0.00226   0.00149  -0.00166   0.00631
 109        8D+2        0.00122  -0.00566   0.00775   0.01035   0.01057
 110        8D-2       -0.00226  -0.01386  -0.00752  -0.00170   0.00848
 111        9D 0        0.00014  -0.00284  -0.00206   0.00069   0.00227
 112        9D+1       -0.03003  -0.00383   0.00186   0.00024  -0.00165
 113        9D-1        0.00290  -0.00003   0.00009  -0.00013   0.00121
 114        9D+2       -0.00137   0.00668   0.00410   0.00594  -0.00507
 115        9D-2        0.00116   0.01105  -0.03052  -0.00688  -0.03214
 116 6   O  1S          0.01547  -0.00244   0.00809  -0.18753   0.00983
 117        2S         -0.02134  -0.00708   0.04591   0.01284  -0.04972
 118        3S         -0.03442   0.02961   0.08307   0.04829  -0.09953
 119        4S         -0.01252   0.03698   0.03215   0.04540  -0.08700
 120        5PX         0.02478  -0.09447  -0.03747  -0.08966   0.04014
 121        5PY        -0.00756  -0.07990  -0.02264  -0.01614   0.16786
 122        5PZ        -0.27308  -0.00884  -0.00997   0.01482  -0.05804
 123        6PX         0.01302  -0.04473  -0.01641  -0.04639  -0.00476
 124        6PY        -0.00974  -0.02859   0.00140   0.00524   0.07978
 125        6PZ        -0.16020  -0.00329  -0.00752   0.01018  -0.03893
 126        7PX         0.00190  -0.00048  -0.00257  -0.00402  -0.01184
 127        7PY        -0.00270  -0.00693  -0.00728   0.00448   0.00938
 128        7PZ        -0.00412   0.00292  -0.00263   0.00233  -0.00822
 129        8D 0       -0.00015   0.00277   0.00036   0.00163  -0.00438
 130        8D+1       -0.01070  -0.00085   0.00006   0.00025  -0.00111
 131        8D-1       -0.01627  -0.00138   0.00006   0.00027  -0.00141
 132        8D+2        0.00087  -0.00112  -0.00076  -0.00018  -0.00244
 133        8D-2        0.00052  -0.00553  -0.00145  -0.00310   0.00749
 134        9D 0       -0.00003   0.00006  -0.00030  -0.00014  -0.00007
 135        9D+1       -0.00983  -0.00048  -0.00023   0.00048  -0.00168
 136        9D-1       -0.01811  -0.00152   0.00004   0.00041  -0.00187
 137        9D+2        0.00180  -0.00470  -0.00192  -0.00058  -0.00396
 138        9D-2       -0.00065   0.00201   0.00184   0.00128  -0.00157
 139 7   O  1S         -0.01768   0.02945   0.12210  -0.06834   0.05900
 140        2S          0.00937  -0.02141  -0.12471  -0.07791  -0.04511
 141        3S          0.01760  -0.08349  -0.17700  -0.09142  -0.03582
 142        4S          0.00883  -0.08924  -0.07453  -0.01178   0.06753
 143        5PX        -0.03978   0.15006  -0.09176  -0.07287  -0.10649
 144        5PY        -0.00213  -0.16931  -0.06803  -0.01375   0.09557
 145        5PZ        -0.24658  -0.04801   0.01737  -0.01616   0.05850
 146        6PX        -0.02552   0.07898  -0.05441  -0.04446  -0.05504
 147        6PY        -0.00615  -0.06416  -0.02144  -0.00537   0.04439
 148        6PZ        -0.14258  -0.03002   0.01093  -0.01087   0.03991
 149        7PX        -0.00529   0.01024  -0.02142  -0.00847  -0.01564
 150        7PY        -0.00321   0.00481  -0.00978  -0.00762  -0.00558
 151        7PZ        -0.00036  -0.00329   0.00145  -0.00218   0.00974
 152        8D 0        0.00030  -0.00570   0.00044   0.00101   0.00276
 153        8D+1       -0.00768  -0.00111   0.00037  -0.00027   0.00060
 154        8D-1        0.01708   0.00239  -0.00072   0.00046  -0.00126
 155        8D+2       -0.00038  -0.00404  -0.00220   0.00031   0.00171
 156        8D-2        0.00103  -0.00895   0.00490   0.00288   0.00647
 157        9D 0       -0.00011   0.00065   0.00258   0.00088  -0.00039
 158        9D+1       -0.00630  -0.00124   0.00045  -0.00056   0.00149
 159        9D-1        0.01865   0.00288  -0.00087   0.00061  -0.00169
 160        9D+2       -0.00152   0.00356   0.00303   0.00167   0.00094
 161        9D-2        0.00061  -0.00186   0.00243   0.00109   0.00050
 162 8   C  1S         -0.02199  -0.01497  -0.10785   0.33433  -0.00865
 163        2S          0.02070  -0.04594   0.10715   0.01900   0.02539
 164        3S          0.06694  -0.33321   0.01128  -0.07088  -0.00444
 165        4S         -0.06624   0.09239  -0.62218  -0.12944  -0.58578
 166        5PX         0.00380   0.05251   0.09627   0.06544  -0.11510
 167        5PY        -0.00623   0.13894   0.23721   0.06850   0.17521
 168        5PZ        -0.02224  -0.00965   0.01191  -0.01904  -0.00949
 169        6PX         0.01489  -0.03341   0.23085  -0.07758   0.21711
 170        6PY        -0.03323   0.15270   0.11833   0.03918  -0.05222
 171        6PZ         0.00508  -0.00216   0.00485  -0.01159  -0.00640
 172        7PX        -0.00863   0.06753  -0.07594  -0.01984   0.07606
 173        7PY         0.01501  -0.03072   0.06200   0.01646   0.07376
 174        7PZ        -0.00644  -0.00100   0.00063  -0.00131  -0.00180
 175        8D 0        0.00016  -0.00147  -0.00014  -0.00002  -0.00266
 176        8D+1        0.00351   0.00027  -0.00068  -0.00059   0.00002
 177        8D-1        0.00419   0.00068  -0.00066  -0.00016   0.00117
 178        8D+2        0.00034  -0.00081  -0.00450   0.00358  -0.00310
 179        8D-2        0.00073  -0.00850  -0.00787  -0.00101  -0.01612
 180        9D 0        0.00232  -0.01372  -0.00129   0.00567  -0.00868
 181        9D+1        0.01237   0.00207  -0.00049  -0.00029   0.00000
 182        9D-1       -0.01186  -0.00196   0.00037  -0.00054  -0.00032
 183        9D+2       -0.01065   0.04475   0.10262  -0.00211   0.07553
 184        9D-2       -0.00298   0.06065   0.09405   0.04693   0.03129
 185 9   C  1S         -0.01438  -0.00388   0.01055   0.01420   0.05678
 186        2S         -0.01069   0.10255  -0.04803   0.02951   0.06373
 187        3S          0.01197   0.00851  -0.07962   0.08996  -0.07660
 188        4S          0.08287  -0.28459   0.44896   0.03069   0.32216
 189        5PX        -0.02343   0.05319  -0.16631  -0.04778   0.12989
 190        5PY        -0.00042  -0.00174   0.14946   0.05448  -0.18806
 191        5PZ         0.00736  -0.00422  -0.00180  -0.01223  -0.00755
 192        6PX         0.01454  -0.08755   0.17417  -0.07965   0.25882
 193        6PY         0.00548  -0.05331  -0.12560  -0.03930  -0.00287
 194        6PZ        -0.00626  -0.00425  -0.00112  -0.00838  -0.00231
 195        7PX        -0.00230   0.01207  -0.10155  -0.03557   0.04858
 196        7PY        -0.01404   0.04334  -0.03597  -0.00094  -0.06760
 197        7PZ         0.00436   0.00025  -0.00013  -0.00161   0.00113
 198        8D 0        0.00045  -0.00480   0.00167  -0.00092  -0.00091
 199        8D+1        0.00148   0.00056  -0.00080   0.00128   0.00031
 200        8D-1       -0.00046  -0.00001   0.00055  -0.00091   0.00063
 201        8D+2        0.00258  -0.00841   0.01514   0.00072  -0.00699
 202        8D-2        0.00007  -0.00952  -0.00526  -0.00000  -0.02121
 203        9D 0       -0.00071   0.00449  -0.00196  -0.00233   0.01479
 204        9D+1        0.00185   0.00071  -0.00038   0.00010  -0.00017
 205        9D-1        0.00123  -0.00000   0.00040  -0.00037   0.00026
 206        9D+2       -0.00777   0.02511  -0.08823   0.00354   0.00171
 207        9D-2       -0.00426   0.03999   0.00900   0.00774   0.00668
 208 10  H  1S          0.02757  -0.17514  -0.01361  -0.02894  -0.15818
 209        2S          0.03796  -0.21359  -0.00038  -0.02769  -0.32285
 210        3S         -0.00006   0.00622  -0.00030  -0.00304  -0.00567
 211        4PX         0.00064  -0.00835  -0.00186  -0.00148  -0.00074
 212        4PY         0.00110  -0.00532   0.00467  -0.00195  -0.00373
 213        4PZ        -0.00128  -0.00003   0.00012   0.00113  -0.00091
 214        5PX         0.00526  -0.01472  -0.00265  -0.00410  -0.05800
 215        5PY         0.00566  -0.03183  -0.00537  -0.00402  -0.06017
 216        5PZ         0.00660   0.00086  -0.00036   0.00028   0.00022
 217 11  H  1S          0.00283   0.06763   0.19469   0.02106   0.20764
 218        2S          0.00409   0.12142   0.34780   0.03018   0.42395
 219        3S         -0.00477   0.01333  -0.02567  -0.00629  -0.00974
 220        4PX         0.00068   0.00255   0.01033   0.00288   0.00543
 221        4PY        -0.00088   0.00103  -0.00693   0.00064  -0.00599
 222        4PZ        -0.00088  -0.00039   0.00037  -0.00074  -0.00022
 223        5PX        -0.00051   0.00845   0.02445  -0.00511   0.05551
 224        5PY        -0.00144  -0.02820  -0.06777  -0.00616  -0.08107
 225        5PZ         0.00698   0.00064  -0.00050  -0.00066   0.00027
 226 12  H  1S         -0.01767   0.07003  -0.02061   0.02858  -0.05772
 227        2S         -0.02643   0.06538  -0.09975   0.05061  -0.23550
 228        3S          0.00464  -0.02138   0.03135   0.00794   0.00127
 229        4PX         0.00015  -0.00286  -0.00404  -0.00218   0.00267
 230        4PY         0.00117  -0.00732   0.00379  -0.00088  -0.00381
 231        4PZ         0.00036  -0.00018  -0.00008  -0.00048  -0.00024
 232        5PX         0.00547  -0.01549   0.02876  -0.00590   0.02319
 233        5PY         0.00359  -0.01009   0.00635  -0.01199   0.06492
 234        5PZ         0.00142  -0.00004  -0.00004  -0.00049   0.00026
                           6         7         8         9        10
     Eigenvalues --     2.00000   2.00000   2.00000   2.00000   2.00000
   1 1   C  1S         -0.25048  -0.15016   0.29065  -0.11689   0.29745
   2        2S          0.11136   0.03144   0.03643  -0.07726   0.02885
   3        3S          0.16586   0.02535  -0.01543  -0.06278   0.04071
   4        4S         -0.02708  -0.12679   0.01194   0.08710  -0.08713
   5        5PX        -0.03023  -0.06198   0.03096   0.01758  -0.14167
   6        5PY        -0.07234  -0.04757  -0.00134   0.02662   0.00829
   7        5PZ         0.00583   0.07101   0.08774   0.25119  -0.03073
   8        6PX        -0.01599  -0.03069   0.03095  -0.00721  -0.06643
   9        6PY         0.00192   0.07080   0.03857  -0.04636   0.06297
  10        6PZ         0.00264   0.03140   0.03874   0.11368  -0.01379
  11        7PX         0.01052   0.01685   0.00252  -0.01687   0.00774
  12        7PY         0.03671  -0.00466  -0.00797   0.05551  -0.00574
  13        7PZ         0.00010   0.00195   0.00290   0.00804  -0.00119
  14        8D 0       -0.00455  -0.00049  -0.00042   0.00128  -0.00234
  15        8D+1       -0.00034  -0.00381  -0.00456  -0.01258   0.00147
  16        8D-1       -0.00055   0.00023  -0.00013  -0.00244  -0.00025
  17        8D+2       -0.00308  -0.00200  -0.00250   0.00334   0.00825
  18        8D-2       -0.00034   0.00255   0.00089   0.00056  -0.00125
  19        9D 0       -0.00031   0.00263   0.00215  -0.00375   0.00768
  20        9D+1        0.00005  -0.00057  -0.00054  -0.00156   0.00010
  21        9D-1       -0.00029   0.00004   0.00068   0.00113  -0.00035
  22        9D+2       -0.00543  -0.00387  -0.00222   0.00546   0.01143
  23        9D-2        0.00125  -0.01470  -0.00891   0.00664  -0.00794
  24 2   C  1S          0.04919   0.02408  -0.08664  -0.02211  -0.20541
  25        2S          0.06089   0.02660  -0.00949  -0.00454   0.00940
  26        3S          0.03763   0.01458  -0.01730   0.03076   0.14774
  27        4S         -0.01318   0.10524  -0.02483  -0.05619   0.04472
  28        5PX         0.11234   0.05933   0.02249  -0.08247  -0.05038
  29        5PY         0.06681   0.04557  -0.00241  -0.04090   0.10664
  30        5PZ         0.01084   0.06691   0.08324   0.24890  -0.02493
  31        6PX        -0.01528   0.06298   0.06147  -0.05768  -0.07665
  32        6PY        -0.05135   0.01987   0.03056  -0.01298   0.01901
  33        6PZ         0.00641   0.03058   0.03714   0.11564  -0.01095
  34        7PX         0.03394  -0.01200  -0.00530   0.05365  -0.01007
  35        7PY         0.01789   0.00540  -0.00781   0.01121   0.00886
  36        7PZ         0.00090   0.00000  -0.00050   0.00312   0.00023
  37        8D 0       -0.00453   0.00036  -0.00077   0.00080  -0.00043
  38        8D+1       -0.00043  -0.00112  -0.00099  -0.00257  -0.00009
  39        8D-1        0.00030   0.00372   0.00454   0.01283  -0.00157
  40        8D+2       -0.00349  -0.00660   0.00110   0.00441  -0.00732
  41        8D-2        0.01027   0.01132  -0.00011  -0.00664  -0.00363
  42        9D 0       -0.00024   0.00225  -0.00119  -0.00017  -0.00130
  43        9D+1       -0.00085  -0.00123   0.00031  -0.00073  -0.00025
  44        9D-1       -0.00004   0.00059   0.00104   0.00264  -0.00038
  45        9D+2        0.03238   0.00147  -0.00995  -0.00278   0.02226
  46        9D-2        0.00553   0.01693   0.00370  -0.00551   0.00342
  47 3   C  1S         -0.02224  -0.02511  -0.20718   0.10217   0.13760
  48        2S          0.04830  -0.03044   0.01262   0.01148  -0.02190
  49        3S         -0.02701  -0.10641   0.02689   0.06303   0.03811
  50        4S         -0.06328  -0.24582   0.07238   0.14938  -0.04175
  51        5PX        -0.09857  -0.04378  -0.03038   0.08157   0.04885
  52        5PY        -0.08204  -0.18382   0.01104   0.06772   0.03647
  53        5PZ         0.01075   0.05637   0.06283   0.17435  -0.01441
  54        6PX        -0.04356   0.12032   0.05159  -0.06190  -0.12997
  55        6PY         0.11163   0.00186  -0.00267  -0.00857   0.05311
  56        6PZ         0.00406   0.02407   0.03033   0.08225  -0.00637
  57        7PX         0.05926  -0.03433  -0.00123   0.03355   0.00466
  58        7PY        -0.01433  -0.02845   0.02411  -0.00284  -0.00932
  59        7PZ        -0.00019   0.00227   0.00394   0.00784  -0.00093
  60        8D 0       -0.00348   0.00211  -0.00063  -0.00029  -0.00071
  61        8D+1        0.00049   0.00266   0.00366   0.01170  -0.00116
  62        8D-1        0.00023   0.00340   0.00365   0.00793  -0.00096
  63        8D+2       -0.00522   0.00571  -0.00275   0.00144   0.00657
  64        8D-2        0.00999   0.00506   0.00163  -0.00329   0.00381
  65        9D 0       -0.00354   0.00147  -0.00564   0.00213   0.00373
  66        9D+1       -0.00094  -0.00172   0.00020   0.00074  -0.00006
  67        9D-1       -0.00065  -0.00090  -0.00008  -0.00034   0.00010
  68        9D+2       -0.02604  -0.00927   0.02197  -0.01534  -0.04043
  69        9D-2       -0.01409   0.01829   0.00469  -0.00568  -0.01484
  70 4   C  1S          0.14395   0.11819   0.53464  -0.11413   0.07949
  71        2S          0.02004  -0.04422   0.05600  -0.00603  -0.07294
  72        3S         -0.19575  -0.03110  -0.04036   0.06441  -0.18899
  73        4S         -0.03030   0.16600  -0.11243  -0.18706   0.00376
  74        5PX         0.12191  -0.19901   0.06607   0.03648  -0.05639
  75        5PY         0.05380   0.06876   0.01850  -0.01961  -0.06866
  76        5PZ         0.00286   0.05888   0.06022   0.11973  -0.01538
  77        6PX        -0.01577  -0.13812  -0.00560   0.06766  -0.04433
  78        6PY         0.05733  -0.03736  -0.06970   0.07543   0.07807
  79        6PZ         0.00166   0.02775   0.02683   0.05164  -0.00581
  80        7PX        -0.00137   0.09687   0.00329  -0.03359  -0.02917
  81        7PY        -0.09851  -0.07029   0.02647  -0.02615  -0.04101
  82        7PZ        -0.00026  -0.00160  -0.00204  -0.00523   0.00106
  83        8D 0       -0.00202   0.00176  -0.00215   0.00010  -0.00112
  84        8D+1        0.00022   0.00271   0.00292   0.00915  -0.00069
  85        8D-1       -0.00091  -0.00009   0.00025  -0.00248  -0.00043
  86        8D+2       -0.00882   0.00686  -0.00718   0.00480   0.01666
  87        8D-2        0.01691   0.00232   0.00037  -0.00569  -0.00517
  88        9D 0       -0.00379  -0.00468   0.00643   0.00497  -0.00281
  89        9D+1        0.00024   0.00637   0.00739   0.01366  -0.00248
  90        9D-1       -0.00206   0.00008   0.00332   0.00241  -0.00130
  91        9D+2        0.00459  -0.06536  -0.00412   0.01713   0.06028
  92        9D-2        0.00170   0.00063  -0.01572   0.01468   0.01184
  93 5   N  1S         -0.13507  -0.27403   0.25377  -0.10672  -0.23421
  94        2S          0.02564   0.02216   0.02335   0.03596   0.04701
  95        3S          0.03757   0.14681   0.01610   0.05837   0.03789
  96        4S          0.11166   0.10203   0.06491   0.04641  -0.02996
  97        5PX        -0.11406   0.06635  -0.02241  -0.00663   0.07578
  98        5PY        -0.21743  -0.00240   0.10404  -0.00435  -0.05378
  99        5PZ        -0.00214   0.00008   0.00400  -0.04381  -0.00717
 100        6PX        -0.05583  -0.00448  -0.02483   0.00187   0.02284
 101        6PY        -0.01031  -0.01222  -0.00133   0.02239   0.01638
 102        6PZ        -0.00143   0.00245   0.00471  -0.01673  -0.00438
 103        7PX        -0.01375  -0.00777  -0.01497   0.00982   0.00705
 104        7PY         0.02087   0.00824  -0.01226   0.00493   0.01479
 105        7PZ        -0.00016   0.00066   0.00094  -0.00169  -0.00074
 106        8D 0       -0.00248   0.00802  -0.00143  -0.00189   0.00163
 107        8D+1       -0.00016   0.00219   0.00266   0.00604  -0.00047
 108        8D-1       -0.00397  -0.00049   0.00778   0.00908  -0.00272
 109        8D+2       -0.01607   0.04095  -0.01328  -0.01058  -0.00962
 110        8D-2        0.01467  -0.00616  -0.01070   0.00884   0.00644
 111        9D 0       -0.00660  -0.00249  -0.00279  -0.00419  -0.00592
 112        9D+1        0.00014   0.00413   0.00462   0.00729  -0.00148
 113        9D-1       -0.00091  -0.00069   0.00118   0.00132  -0.00051
 114        9D+2       -0.00944  -0.00795  -0.00235  -0.01275  -0.01870
 115        9D-2       -0.02858   0.00952   0.01904  -0.00577  -0.01586
 116 6   O  1S         -0.04644  -0.04261  -0.27803   0.12520  -0.42975
 117        2S          0.05702  -0.22707  -0.13082   0.07780  -0.01445
 118        3S          0.03075  -0.29885  -0.15005   0.07803   0.00583
 119        4S         -0.06750  -0.07027  -0.05423   0.00869   0.01074
 120        5PX         0.29241  -0.23742   0.11166   0.04396   0.06547
 121        5PY         0.07110   0.15856  -0.06486  -0.00102   0.01138
 122        5PZ         0.03355  -0.00455  -0.08155  -0.12991   0.02249
 123        6PX         0.17010  -0.17431   0.07470   0.02261   0.03104
 124        6PY         0.01395   0.08748  -0.05188  -0.00364   0.01573
 125        6PZ         0.02303  -0.00253  -0.05477  -0.08426   0.01539
 126        7PX         0.02379  -0.03995   0.01708   0.00401   0.00026
 127        7PY        -0.02729   0.01466  -0.01627   0.00021   0.00506
 128        7PZ         0.00564  -0.00025  -0.01246  -0.01557   0.00386
 129        8D 0       -0.00563  -0.00065   0.00070  -0.00044  -0.00097
 130        8D+1        0.00046   0.00009  -0.00115  -0.00244   0.00023
 131        8D-1        0.00062  -0.00023  -0.00179  -0.00405   0.00037
 132        8D+2        0.00128  -0.00557   0.00260   0.00013   0.00237
 133        8D-2        0.01125  -0.00358  -0.00122   0.00229   0.00341
 134        9D 0       -0.00034  -0.00009   0.00002   0.00120  -0.00097
 135        9D+1        0.00093  -0.00017  -0.00245  -0.00417   0.00067
 136        9D-1        0.00092   0.00015  -0.00183  -0.00380   0.00035
 137        9D+2        0.00624  -0.00648   0.00511  -0.00167  -0.00248
 138        9D-2        0.00357  -0.00508  -0.00027  -0.00007   0.00295
 139 7   O  1S          0.02433   0.07845  -0.12551   0.12456   0.20400
 140        2S         -0.15332  -0.08716   0.03786  -0.06618  -0.03028
 141        3S         -0.19539  -0.12874   0.03918  -0.11075  -0.07121
 142        4S         -0.08132  -0.03239  -0.02293  -0.04026  -0.00811
 143        5PX         0.02660  -0.24776   0.08737   0.13598   0.10528
 144        5PY         0.02281  -0.04727  -0.07924  -0.00097   0.06661
 145        5PZ        -0.03861  -0.01528   0.07056   0.05350  -0.02863
 146        6PX         0.02141  -0.17338   0.04800   0.07864   0.06192
 147        6PY         0.03017  -0.02288  -0.04048   0.01829   0.05409
 148        6PZ        -0.02599  -0.00983   0.04791   0.03948  -0.01919
 149        7PX         0.00259  -0.03403   0.00872   0.01328   0.01183
 150        7PY         0.00782  -0.00795   0.00356   0.01096   0.00581
 151        7PZ        -0.00576  -0.00201   0.01097   0.01305  -0.00398
 152        8D 0        0.00174   0.00005  -0.00216  -0.00116   0.00060
 153        8D+1       -0.00055  -0.00008   0.00110   0.00055  -0.00045
 154        8D-1        0.00103   0.00045  -0.00174  -0.00007   0.00086
 155        8D+2        0.00029  -0.00331  -0.00175   0.00138   0.00364
 156        8D-2        0.00481   0.00451  -0.00420  -0.00357  -0.00268
 157        9D 0        0.00227   0.00002   0.00019   0.00025  -0.00008
 158        9D+1       -0.00098  -0.00053   0.00154   0.00066  -0.00063
 159        9D-1        0.00132   0.00014  -0.00266  -0.00141   0.00119
 160        9D+2        0.00134  -0.00457  -0.00032   0.00310   0.00351
 161        9D-2        0.00168   0.00621  -0.00171  -0.00009  -0.00014
 162 8   C  1S          0.10542   0.10898  -0.20296   0.18097   0.41869
 163        2S          0.14868  -0.00435   0.03016  -0.04533  -0.07040
 164        3S          0.11295  -0.09432   0.08790  -0.04325  -0.13354
 165        4S          0.05535  -0.15171   0.03220   0.14479   0.02505
 166        5PX         0.03018   0.01117  -0.06177   0.00107   0.13417
 167        5PY        -0.07918   0.08218  -0.02028  -0.03130  -0.00325
 168        5PZ        -0.00405   0.05930   0.06233   0.12315  -0.02071
 169        6PX        -0.02241  -0.05508  -0.03626   0.05642  -0.08767
 170        6PY        -0.04905  -0.01577  -0.06969   0.05665   0.05355
 171        6PZ        -0.00133   0.02575   0.02272   0.04490  -0.00740
 172        7PX        -0.05234  -0.08122   0.00691  -0.01320  -0.01348
 173        7PY        -0.02002   0.03095  -0.01452  -0.03787   0.01946
 174        7PZ         0.00024   0.00253   0.00078   0.00071  -0.00026
 175        8D 0       -0.00353   0.00126  -0.00081   0.00068   0.00058
 176        8D+1       -0.00006   0.00192   0.00221   0.00640  -0.00103
 177        8D-1       -0.00017  -0.00312  -0.00316  -0.00687   0.00084
 178        8D+2        0.00041   0.00839  -0.00498  -0.00159   0.00658
 179        8D-2        0.00128   0.00106   0.00059   0.00099  -0.00933
 180        9D 0       -0.00199   0.00611  -0.00235  -0.00066   0.00401
 181        9D+1        0.00068  -0.00069  -0.00246  -0.00320   0.00081
 182        9D-1       -0.00029   0.00109   0.00170   0.00096  -0.00051
 183        9D+2       -0.01204  -0.05370  -0.00452   0.02654  -0.04444
 184        9D-2        0.02043   0.02456   0.00939  -0.03773  -0.01125
 185 9   C  1S          0.11085  -0.03797  -0.02866   0.07782  -0.17471
 186        2S          0.10340   0.04232  -0.00722  -0.04039  -0.02636
 187        3S          0.04017   0.07989  -0.03036  -0.06059   0.14384
 188        4S          0.03076   0.19907  -0.01960  -0.14371   0.11044
 189        5PX        -0.05366   0.00156   0.04246   0.00962  -0.11568
 190        5PY         0.00250   0.03710   0.00331   0.00589  -0.11473
 191        5PZ        -0.00153   0.06546   0.07371   0.17962  -0.02811
 192        6PX        -0.05048  -0.10543   0.00325   0.05970  -0.09815
 193        6PY        -0.00136   0.01935   0.01543  -0.00735   0.05344
 194        6PZ        -0.00197   0.03332   0.03898   0.09070  -0.01479
 195        7PX        -0.03155  -0.02919   0.00697  -0.01384  -0.00334
 196        7PY         0.01958  -0.02645   0.00440   0.03648  -0.01601
 197        7PZ        -0.00057   0.00078   0.00160   0.00313  -0.00086
 198        8D 0       -0.00616  -0.00128  -0.00078   0.00256   0.00083
 199        8D+1        0.00030  -0.00217  -0.00214  -0.00311   0.00068
 200        8D-1       -0.00029  -0.00381  -0.00469  -0.01332   0.00163
 201        8D+2        0.00237  -0.00486   0.00097   0.00048  -0.00540
 202        8D-2        0.00298  -0.00026  -0.00058   0.00242   0.00151
 203        9D 0       -0.00313  -0.00436  -0.00058   0.00308  -0.00486
 204        9D+1        0.00053  -0.00111  -0.00250  -0.00416   0.00092
 205        9D-1       -0.00012  -0.00097  -0.00122  -0.00276   0.00046
 206        9D+2       -0.00283   0.02500   0.00812  -0.01351   0.01790
 207        9D-2        0.01374   0.01357  -0.00006  -0.01995   0.02451
 208 10  H  1S          0.14247   0.11492   0.02371  -0.07703  -0.05097
 209        2S          0.17775   0.15798   0.03214  -0.11359  -0.05527
 210        3S          0.00701  -0.00129   0.00816  -0.00291  -0.01032
 211        4PX         0.00198   0.00747  -0.00019  -0.00230  -0.00186
 212        4PY         0.00663   0.00200   0.00187  -0.00277  -0.00372
 213        4PZ         0.00044   0.00184   0.00194   0.00559  -0.00043
 214        5PX         0.01825   0.02472   0.00600  -0.02150  -0.01728
 215        5PY         0.03874   0.03344   0.00583  -0.02064  -0.00896
 216        5PZ         0.00008  -0.00100  -0.00116  -0.00163   0.00046
 217 11  H  1S          0.00983   0.02847   0.03305  -0.04499  -0.08663
 218        2S         -0.00877  -0.00242   0.04388  -0.05334  -0.11775
 219        3S         -0.00039  -0.00692   0.00303   0.00040  -0.01236
 220        4PX         0.00205   0.00363  -0.00052  -0.00272  -0.00214
 221        4PY        -0.00419  -0.00108  -0.00308   0.00321   0.00786
 222        4PZ        -0.00023   0.00190   0.00214   0.00405  -0.00069
 223        5PX        -0.01087  -0.01210   0.00488   0.00273  -0.02038
 224        5PY        -0.00191  -0.00404  -0.00851   0.01291   0.01676
 225        5PZ        -0.00036  -0.00024   0.00002   0.00027   0.00011
 226 12  H  1S          0.04200   0.05100   0.01880  -0.01469  -0.12958
 227        2S          0.01921   0.03975   0.01208   0.01222  -0.12506
 228        3S          0.00296   0.01928  -0.00074  -0.00380  -0.00295
 229        4PX        -0.00299  -0.00205   0.00005   0.00131   0.00384
 230        4PY        -0.00354  -0.00289  -0.00109   0.00196   0.00618
 231        4PZ        -0.00008   0.00223   0.00253   0.00616  -0.00092
 232        5PX         0.00070  -0.00914  -0.00166   0.00127   0.01192
 233        5PY        -0.00792  -0.00515  -0.00140  -0.00236   0.02309
 234        5PZ        -0.00012   0.00079   0.00105   0.00215  -0.00036
                          11        12        13        14        15
     Eigenvalues --     2.00000   2.00000   2.00000   2.00000   2.00000
   1 1   C  1S         -0.29461   0.16681   0.20587   0.00885   0.22524
   2        2S         -0.06126   0.09949  -0.00695   0.10693   0.04482
   3        3S         -0.03051   0.05444  -0.02091   0.15802  -0.02789
   4        4S          0.02212  -0.06225   0.07472  -0.12226  -0.00820
   5        5PX        -0.02323  -0.07463  -0.02275  -0.00802   0.06188
   6        5PY        -0.00524  -0.09127  -0.10200   0.04252  -0.00079
   7        5PZ        -0.08211   0.02309  -0.01595  -0.04213  -0.06133
   8        6PX        -0.01731   0.01959   0.01127  -0.02264   0.05704
   9        6PY         0.04999   0.03482  -0.04351   0.08517   0.04317
  10        6PZ        -0.03923   0.00752  -0.00557  -0.02390  -0.02983
  11        7PX        -0.00758   0.01134  -0.01743   0.01734   0.00903
  12        7PY        -0.04514  -0.04513   0.12897  -0.03816  -0.06389
  13        7PZ        -0.00199  -0.00003   0.00123  -0.00228  -0.00243
  14        8D 0       -0.00025  -0.00395   0.00044  -0.00226   0.00089
  15        8D+1        0.00402  -0.00184   0.00157   0.00115   0.00271
  16        8D-1        0.00597   0.00264  -0.00546   0.00213   0.00690
  17        8D+2        0.00415   0.00183  -0.00206  -0.00456  -0.00371
  18        8D-2       -0.00405   0.00028   0.01141  -0.00025   0.00252
  19        9D 0       -0.00223   0.00486   0.00189   0.00359   0.00062
  20        9D+1        0.00010  -0.00050   0.00104   0.00002  -0.00034
  21        9D-1        0.00240   0.00069   0.00059   0.00075   0.00126
  22        9D+2        0.00561  -0.01257  -0.01950   0.00516  -0.00993
  23        9D-2       -0.00636  -0.00307  -0.01132  -0.00878  -0.00954
  24 2   C  1S          0.05375   0.02387   0.01173  -0.23893   0.06519
  25        2S          0.02960   0.07884  -0.00456   0.04786  -0.01913
  26        3S          0.06322   0.07002   0.02081   0.12822  -0.09958
  27        4S          0.00282   0.01445  -0.12594   0.15031  -0.01846
  28        5PX        -0.04352   0.07326   0.05340   0.01260   0.04679
  29        5PY        -0.02969   0.09878   0.08820  -0.01407  -0.01228
  30        5PZ        -0.12371   0.00938   0.01853  -0.04260  -0.10703
  31        6PX         0.02138   0.00954  -0.05863   0.00232   0.11377
  32        6PY         0.01025   0.00548   0.02433  -0.02543   0.04208
  33        6PZ        -0.07078  -0.00066   0.01330  -0.02505  -0.06080
  34        7PX        -0.04514  -0.03790   0.12539  -0.04474  -0.05141
  35        7PY        -0.02228  -0.00620   0.02889   0.00915  -0.02585
  36        7PZ        -0.00967  -0.00377   0.00394  -0.00468  -0.00829
  37        8D 0        0.00019  -0.00441   0.00034  -0.00208  -0.00081
  38        8D+1        0.00331  -0.00085   0.00038  -0.00124   0.00233
  39        8D-1       -0.00393   0.00146  -0.00117  -0.00190  -0.00277
  40        8D+2        0.00152  -0.00230  -0.00279  -0.00149   0.00127
  41        8D-2        0.00035   0.00137  -0.00095   0.00853   0.00200
  42        9D 0       -0.00017  -0.00158   0.00761  -0.00413  -0.00041
  43        9D+1        0.00675   0.00012   0.00381   0.00144   0.00258
  44        9D-1       -0.00030   0.00044   0.00040   0.00018  -0.00048
  45        9D+2       -0.00026   0.01442   0.00172   0.01509  -0.02346
  46        9D-2        0.00739   0.00416  -0.01578   0.01400   0.00551
  47 3   C  1S          0.00258   0.07269   0.01120  -0.11828  -0.02274
  48        2S         -0.00484   0.07181  -0.03956   0.04290   0.01734
  49        3S         -0.05905   0.04342   0.10389   0.04481  -0.00568
  50        4S         -0.02101  -0.07081   0.19069  -0.30111  -0.01307
  51        5PX         0.06143  -0.06650  -0.02625  -0.01569  -0.05475
  52        5PY        -0.04013   0.09152   0.04241  -0.12267  -0.00957
  53        5PZ        -0.09993   0.02697  -0.01299   0.00044  -0.07270
  54        6PX         0.00500  -0.07089  -0.08611   0.02566   0.14404
  55        6PY        -0.06299   0.04046   0.09460   0.09685  -0.03232
  56        6PZ        -0.03516   0.01224   0.00628   0.00491  -0.03287
  57        7PX        -0.03252   0.00117   0.08616  -0.02244  -0.04756
  58        7PY         0.01340   0.00315  -0.01391  -0.02898   0.02911
  59        7PZ         0.00140   0.00231   0.00182   0.00219  -0.00101
  60        8D 0        0.00099  -0.00482   0.00014  -0.00098  -0.00098
  61        8D+1       -0.00594  -0.00054   0.00281  -0.00296  -0.00598
  62        8D-1       -0.00114   0.00369  -0.00420   0.00238   0.00063
  63        8D+2        0.00630  -0.00713  -0.00564   0.00763  -0.00871
  64        8D-2        0.00125  -0.00114   0.00551  -0.00057   0.00261
  65        9D 0        0.00196   0.00008  -0.00930   0.00570  -0.00444
  66        9D+1        0.00628  -0.00066   0.00640   0.00083   0.00114
  67        9D-1        0.00549   0.00012   0.00207   0.00113   0.00265
  68        9D+2        0.00750   0.02268  -0.01651  -0.04595   0.04294
  69        9D-2       -0.01087  -0.00644  -0.00593  -0.01019   0.02311
  70 4   C  1S          0.11751  -0.13996   0.36581   0.19356  -0.51683
  71        2S         -0.08107   0.14160   0.01088   0.01389   0.06116
  72        3S         -0.28482   0.08834   0.07998  -0.00489   0.29572
  73        4S          0.11082   0.10544  -0.22794   0.22142  -0.05658
  74        5PX        -0.00947   0.06905   0.07385  -0.15730   0.11368
  75        5PY         0.00763  -0.05384   0.01455   0.02116   0.08421
  76        5PZ        -0.00601   0.07233  -0.09042   0.05302   0.02874
  77        6PX        -0.08360   0.03670   0.10486  -0.08250   0.09189
  78        6PY        -0.17914   0.01138   0.20987   0.12605  -0.01857
  79        6PZ        -0.00033   0.03838  -0.04795   0.03241   0.01867
  80        7PX        -0.03119  -0.05041  -0.00759   0.00525   0.07920
  81        7PY         0.06558  -0.00595  -0.11861  -0.06844   0.05503
  82        7PZ         0.00329   0.00126  -0.00137   0.00416   0.00354
  83        8D 0        0.00030  -0.00323   0.00565  -0.00298   0.00115
  84        8D+1       -0.00179   0.00252  -0.00236   0.00095  -0.00018
  85        8D-1        0.00895   0.00292  -0.00392   0.00291   0.00802
  86        8D+2        0.00564  -0.00559  -0.00801   0.00771  -0.01547
  87        8D-2       -0.00074   0.00559  -0.00173  -0.00266   0.00376
  88        9D 0       -0.00770  -0.00875   0.01778  -0.00530   0.00189
  89        9D+1       -0.00075   0.00592  -0.00658   0.00253   0.00090
  90        9D-1        0.02060   0.00424   0.00319   0.00653   0.01132
  91        9D+2        0.03390   0.06295   0.03840  -0.04318  -0.04413
  92        9D-2       -0.06138  -0.00889   0.05580   0.07400   0.01258
  93 5   N  1S         -0.07580   0.05105  -0.03607   0.08514   0.02765
  94        2S         -0.04057  -0.06361   0.01597   0.01672   0.02875
  95        3S         -0.06855  -0.18366   0.01572  -0.01049   0.11226
  96        4S         -0.08410  -0.17922   0.08715  -0.15228   0.22115
  97        5PX         0.04315  -0.02788  -0.16533   0.13973  -0.12885
  98        5PY         0.08589  -0.05151  -0.06696   0.02081   0.08774
  99        5PZ         0.01925  -0.00451  -0.00715  -0.00825   0.00669
 100        6PX         0.00506   0.01335  -0.04866   0.07721  -0.06780
 101        6PY        -0.00813  -0.05692   0.00493   0.09605   0.05045
 102        6PZ         0.00920   0.00065  -0.00678  -0.00260   0.00392
 103        7PX         0.01094   0.01672  -0.02302   0.01315  -0.02561
 104        7PY        -0.00161  -0.00944   0.01149   0.06054   0.00025
 105        7PZ         0.00056  -0.00010  -0.00053  -0.00148  -0.00043
 106        8D 0        0.00168  -0.00127  -0.00246   0.00009  -0.00140
 107        8D+1        0.00228   0.00386  -0.00280   0.00383   0.00262
 108        8D-1        0.03479   0.00700   0.01317   0.01094   0.01478
 109        8D+2       -0.01100   0.01319   0.00635   0.01526   0.00336
 110        8D-2       -0.00608  -0.00418   0.02037   0.00079  -0.00358
 111        9D 0       -0.00000   0.00664  -0.00276   0.00789  -0.00618
 112        9D+1        0.00041   0.00461  -0.00579   0.00294   0.00183
 113        9D-1        0.00642   0.00128   0.00336   0.00188   0.00235
 114        9D+2       -0.00186   0.04047  -0.00035   0.00434  -0.00075
 115        9D-2        0.01945  -0.00851  -0.01089  -0.01327   0.01186
 116 6   O  1S          0.00127   0.14189   0.26063  -0.06398  -0.10556
 117        2S         -0.04396  -0.01942   0.06037   0.26847  -0.07551
 118        3S         -0.04309  -0.00024   0.03436   0.38148  -0.10573
 119        4S          0.02016   0.03411  -0.03743   0.17782  -0.08581
 120        5PX         0.02227  -0.11495  -0.11949  -0.15343   0.02286
 121        5PY        -0.09672   0.08223   0.23385  -0.14992   0.02445
[...]
   D14        0.00015  -0.00000   0.00000  -0.00015  -0.00015  -0.00000
   D15       -3.14132  -0.00001   0.00000  -0.00028  -0.00028   3.14159
   D16       -3.14148  -0.00000   0.00000  -0.00012  -0.00012  -3.14159
   D17        0.00025  -0.00001   0.00000  -0.00025  -0.00025   0.00000
   D18       -0.00016   0.00001   0.00000   0.00016   0.00016   0.00000
   D19       -3.14152  -0.00000   0.00000  -0.00007  -0.00007   3.14159
   D20        3.14130   0.00001   0.00000   0.00029   0.00029  -3.14159
   D21       -0.00006  -0.00000   0.00000   0.00006   0.00006  -0.00000
         Item               Value     Threshold  Converged?
 Maximum Force            0.000022     0.000450     YES
 RMS     Force            0.000008     0.000300     YES
 Maximum Displacement     0.001457     0.001800     YES
 RMS     Displacement     0.000311     0.001200     YES
 Predicted change in Energy=-2.140763D-08
 Optimization completed.
    -- Stationary point found.
                           ----------------------------
                           !   Optimized Parameters   !
                           ! (Angstroms and Degrees)  !
 --------------------------                            --------------------------
 ! Name  Definition              Value          Derivative Info.                !
 --------------------------------------------------------------------------------
 ! R1    R(1,2)                  1.2522         -DE/DX =    0.0                 !
 ! R2    R(1,9)                  1.3887         -DE/DX =    0.0                 !
 ! R3    R(2,3)                  1.3819         -DE/DX =    0.0                 !
 ! R4    R(3,4)                  1.4157         -DE/DX =    0.0                 !
 ! R5    R(3,10)                 1.0859         -DE/DX =    0.0                 !
 ! R6    R(4,5)                  1.4799         -DE/DX =    0.0                 !
 ! R7    R(4,8)                  1.4107         -DE/DX =    0.0                 !
 ! R8    R(5,6)                  1.2281         -DE/DX =    0.0                 !
 ! R9    R(5,7)                  1.228          -DE/DX =    0.0                 !
 ! R10   R(8,9)                  1.409          -DE/DX =    0.0                 !
 ! R11   R(8,11)                 1.0879         -DE/DX =    0.0                 !
 ! R12   R(9,12)                 1.0876         -DE/DX =    0.0                 !
 ! A1    A(2,1,9)              127.7384         -DE/DX =    0.0                 !
 ! A2    A(1,2,3)              127.2552         -DE/DX =    0.0                 !
 ! A3    A(2,3,4)              109.0986         -DE/DX =    0.0                 !
 ! A4    A(2,3,10)             128.8665         -DE/DX =    0.0                 !
 ! A5    A(4,3,10)             122.0349         -DE/DX =    0.0                 !
 ! A6    A(3,4,5)              117.4843         -DE/DX =    0.0                 !
 ! A7    A(3,4,8)              124.3129         -DE/DX =    0.0                 !
 ! A8    A(5,4,8)              118.2029         -DE/DX =    0.0                 !
 ! A9    A(4,5,6)              117.4514         -DE/DX =    0.0                 !
 ! A10   A(4,5,7)              118.0025         -DE/DX =    0.0                 !
 ! A11   A(6,5,7)              124.546          -DE/DX =    0.0                 !
 ! A12   A(4,8,9)              121.1986         -DE/DX =    0.0                 !
 ! A13   A(4,8,11)             118.5123         -DE/DX =    0.0                 !
 ! A14   A(9,8,11)             120.2891         -DE/DX =    0.0                 !
 ! A15   A(1,9,8)              110.3963         -DE/DX =    0.0                 !
 ! A16   A(1,9,12)             127.1488         -DE/DX =    0.0                 !
 ! A17   A(8,9,12)             122.4549         -DE/DX =    0.0                 !
 ! D1    D(9,1,2,3)              0.0078         -DE/DX =    0.0                 !
 ! D2    D(2,1,9,8)              0.0018         -DE/DX =    0.0                 !
 ! D3    D(2,1,9,12)          -180.0123         -DE/DX =    0.0                 !
 ! D4    D(1,2,3,4)             -0.0085         -DE/DX =    0.0                 !
 ! D5    D(1,2,3,10)           179.9866         -DE/DX =    0.0                 !
 ! D6    D(2,3,4,5)            180.0022         -DE/DX =    0.0                 !
 ! D7    D(2,3,4,8)              0.0005         -DE/DX =    0.0                 !
 ! D8    D(10,3,4,5)             0.0067         -DE/DX =    0.0                 !
 ! D9    D(10,3,4,8)          -179.995          -DE/DX =    0.0                 !
 ! D10   D(3,4,5,6)             -0.0436         -DE/DX =    0.0                 !
 ! D11   D(3,4,5,7)           -180.0467         -DE/DX =    0.0                 !
 ! D12   D(8,4,5,6)           -180.042          -DE/DX =    0.0                 !
 ! D13   D(8,4,5,7)             -0.0451         -DE/DX =    0.0                 !
 ! D14   D(3,4,8,9)              0.0084         -DE/DX =    0.0                 !
 ! D15   D(3,4,8,11)           180.0159         -DE/DX =    0.0                 !
 ! D16   D(5,4,8,9)           -179.9934         -DE/DX =    0.0                 !
 ! D17   D(5,4,8,11)             0.0141         -DE/DX =    0.0                 !
 ! D18   D(4,8,9,1)             -0.0091         -DE/DX =    0.0                 !
 ! D19   D(4,8,9,12)           180.0042         -DE/DX =    0.0                 !
 ! D20   D(11,8,9,1)          -180.0168         -DE/DX =    0.0                 !
 ! D21   D(11,8,9,12)           -0.0034         -DE/DX =    0.0                 !
 --------------------------------------------------------------------------------
 GradGradGradGradGradGradGradGradGradGradGradGradGradGradGradGradGradGrad

 Leave Link  103 at Sat Nov  5 15:43:28 2016, MaxMem=   524288000 cpu:               0.1 elap:               0.0
 (Enter /home/ubuntu/g16/l9999.exe)

 ----------------------------------------------------------------------

 Electric dipole moment (input orientation):
 (Debye = 10**-18 statcoulomb cm , SI units = C m)
                  (au)            (Debye)         (10**-30 SI)
   Tot        0.128168D+01      0.325769D+01      0.108665D+02
   x         -0.118017D+01     -0.299969D+01     -0.100059D+02
   y         -0.497402D+00     -0.126427D+01     -0.421715D+01
   z          0.498629D-01      0.126739D+00      0.422755D+00

 Dipole polarizability, Alpha (input orientation).
 (esu units = cm**3 , SI units = C**2 m**2 J**-1)
 Alpha(0;0):
               (au)            (10**-24 esu)      (10**-40 SI)
   iso        0.855749D+02      0.126809D+02      0.141094D+02
   aniso      0.592199D+02      0.877548D+01      0.976404D+01
   xx         0.109633D+03      0.162460D+02      0.180761D+02
   yx         0.640930D+01      0.949760D+00      0.105675D+01
   yy         0.994639D+02      0.147390D+02      0.163994D+02
   zx        -0.892422D+00     -0.132243D+00     -0.147141D+00
   zy        -0.461085D+01     -0.683257D+00     -0.760226D+00
   zz         0.476274D+02      0.705765D+01      0.785270D+01

 ----------------------------------------------------------------------

 Dipole orientation:
     6         -0.16551978          0.09655223          2.41256887
     6         -0.93567258          1.58686117          0.74364196
     6         -0.77711816          1.28015902         -1.84493285
     6          0.42678379         -1.04855081         -2.37834868
     7          0.78050328         -1.73255201         -5.06685823
     8          0.00520861         -0.23616031         -6.66248911
     8          1.82436768         -3.74806204         -5.55013070
     6          1.30465422         -2.74664907         -0.52032924
     6          1.02954894         -2.21527126          2.07414734
     1         -1.42635677          2.53567639         -3.33250968
     1          2.20653507         -4.49006491         -1.13176995
     1          1.69190077         -3.49621896          3.53863233

 Electric dipole moment (dipole orientation):
 (Debye = 10**-18 statcoulomb cm , SI units = C m)
                  (au)            (Debye)         (10**-30 SI)
   Tot        0.128168D+01      0.325769D+01      0.108665D+02
   x          0.000000D+00      0.000000D+00      0.000000D+00
   y          0.000000D+00      0.000000D+00      0.000000D+00
   z          0.128168D+01      0.325769D+01      0.108665D+02

 Dipole polarizability, Alpha (dipole orientation).
 (esu units = cm**3 , SI units = C**2 m**2 J**-1)
 Alpha(0;0):
               (au)            (10**-24 esu)      (10**-40 SI)
   iso        0.855749D+02      0.126809D+02      0.141094D+02
   aniso      0.592199D+02      0.877548D+01      0.976404D+01
   xx         0.576647D+02      0.854503D+01      0.950762D+01
   yx        -0.201967D+02     -0.299285D+01     -0.332999D+01
   yy         0.862682D+02      0.127836D+02      0.142237D+02
   zx         0.453536D+00      0.672072D-01      0.747781D-01
   zy        -0.880334D+00     -0.130452D+00     -0.145147D+00
   zz         0.112792D+03      0.167140D+02      0.185968D+02

 ----------------------------------------------------------------------
 1\1\GINC-LC06-2-2\Freq\UB3LYP\Aug-CC-pVDZ\C6H3N1O2\UBUNTU\05-Nov-2016\
 0\\#P Geom=AllCheck Guess=TCheck SCRF=Check GenChk UB3LYP/Aug-CC-pVDZ 
 Freq\\4-NO2C6H3_UB3LYP-aug-cc-pVDZ\\0,1\C,-1.2092452429,-0.4216476022,
 -0.0111552872\C,-0.7422374863,0.7355859313,-0.1147239812\C,0.590343522
 8,1.0995624094,-0.153744016\C,1.3912760697,-0.0636782789,-0.0563438792
 \N,2.8602183572,0.1145841114,-0.0798085469\O,3.2899038745,1.2604532059
 ,-0.1831245378\O,3.5641367251,-0.8881133563,0.0049637686\C,0.880432963
 6,-1.3733686613,0.0609319245\C,-0.5072601456,-1.6156854134,0.089423021
 \H,1.0234876136,2.0913096039,-0.2428801159\H,1.583461288,-2.200788523,
 0.1297608391\H,-0.9232475398,-2.6165834268,0.1792508109\\Version=ES64L
 -G16RevA.03\State=1-A\HF=-435.4712342\S2=0.\S2-1=0.\S2A=0.\RMSD=1.645e
 -09\RMSF=1.447e-05\ZeroPoint=0.0774591\Thermal=0.0843782\Dipole=-1.180
 1686,-0.497402,0.0498629\DipoleDeriv=-0.5114233,-0.6855603,0.0626455,-
 0.0386463,0.1034371,-0.0087757,0.0061329,-0.005306,0.0012503,-0.038988
 4,0.4630219,-0.040285,-0.1575899,-0.6387142,0.0558509,0.0139133,0.0525
 111,-0.0140956,0.3420476,0.0328901,-0.004963,0.0670796,0.2632702,-0.02
 71187,-0.0078447,-0.0269856,-0.0404444,-0.441633,-0.0895067,0.0102863,
 -0.138813,0.0374155,-0.000274,0.0146837,-0.0005153,0.0247044,1.8207772
 ,0.0401305,-0.0117522,0.0950885,1.52476,-0.1128932,-0.0166016,-0.11244
 63,0.2627375,-0.723428,-0.3326499,0.0319225,-0.2273193,-0.9363702,0.06
 31464,0.0225899,0.0636164,-0.2405998,-0.8967271,0.3304757,-0.0257163,0
 .2463546,-0.7884377,0.0474265,-0.0182511,0.0469341,-0.2408873,0.079280
 6,-0.0779347,0.0060879,0.1942397,-0.1685423,0.0079491,-0.017788,0.0093
 651,-0.0663803,0.077381,0.3060343,-0.0277653,0.0028897,0.4321599,-0.04
 74726,-0.0013051,-0.0491492,-0.1064768,0.1254222,-0.00545,0.0005083,-0
 .0363241,0.0857526,0.0042009,0.0031796,0.0040658,0.1313963,0.0978193,0
 .0646683,-0.0053472,0.0111999,0.0997152,0.004787,-0.000676,0.0045444,0
 .15486,0.0694719,-0.0461193,0.0043785,-0.0181593,-0.0144459,0.0131733,
 0.0019671,0.0133656,0.1339357\Polar=109.6333106,6.4092991,99.4639155,-
 0.8924223,-4.6108452,47.6274129\Quadrupole=-5.7601678,4.7231094,1.0370
 584,1.0886721,-0.0593025,-0.3286289\PG=C01 [X(C6H3N1O2)]\NImag=0\\0.26
 007080,0.14681247,1.00513199,-0.01391385,-0.08373022,0.06297022,-0.085
 98472,-0.25297341,0.02237299,0.49017314,-0.28785400,-0.65307408,0.0557
 0875,0.36675326,0.79300441,0.02542583,0.05552004,-0.03778851,-0.034383
 64,-0.06650405,0.06016505,-0.02833116,-0.07705928,0.00685321,-0.314422
 99,-0.08246317,0.00871113,0.61733407,0.00020855,0.00299706,-0.00089324
 ,-0.13216595,-0.09787632,0.00612770,0.12707643,0.70307672,0.00009698,-
 0.00047861,-0.00713335,0.01306091,0.00586394,-0.03655449,-0.01383514,-
 0.05216812,0.11918369,-0.01286723,0.00234088,-0.00015741,-0.06052541,-
 0.00132443,0.00048969,-0.13282577,0.10389905,-0.00866754,0.51596913,-0
 .00876767,-0.07431346,0.00622685,0.06798143,0.04690976,-0.00365414,0.0
 4507831,-0.24815821,0.01648586,-0.01039426,0.68213084,0.00081944,0.006
 16897,-0.00418134,-0.00557188,-0.00328436,0.00958798,-0.00352917,0.016
 17231,-0.05822215,-0.00109889,-0.04738142,0.14430434,0.00234766,0.0027
 0285,-0.00021400,0.00377999,0.00534137,-0.00046932,-0.03833489,0.01080
 976,-0.00074629,-0.11099854,-0.00191844,0.00033348,0.63512444,0.004739
 14,-0.00623771,0.00107344,0.00603573,-0.00167793,0.00041242,0.01892888
 ,0.01586556,-0.00151295,-0.00190574,-0.10270158,0.00195502,-0.03955893
 ,0.92557272,-0.00039321,0.00108894,0.00622764,-0.00053257,0.00041565,0
 .00336922,-0.00144288,-0.00147333,-0.00013084,0.00033082,0.00195840,-0
 .08055444,0.00136219,-0.06110294,0.23549046,-0.00048835,-0.00243729,0.
 00021095,-0.00043003,-0.00066506,0.00006020,-0.00364812,-0.00138388,0.
 00015188,-0.02640628,-0.05065949,0.00470449,-0.19458691,-0.14929340,0.
 01378582,0.19335490,0.00081399,0.00080562,-0.00014205,-0.00266259,0.00
 135841,-0.00010532,0.00789173,-0.00737414,0.00071053,-0.03622859,-0.02
 275676,0.00389104,-0.14484680,-0.45542859,0.03415140,0.16847850,0.5940
 1775,-0.00007248,-0.00012557,-0.00074965,0.00023666,-0.00011492,-0.000
 00152,-0.00066790,0.00076177,0.00116873,0.00343497,0.00396912,0.018853
 77,0.01339547,0.03417062,-0.07988300,-0.01573307,-0.05079205,0.0326894
 5,-0.00371963,0.00109922,-0.00008375,-0.00412180,-0.00181095,0.0001798
 4,-0.00151166,-0.00646695,0.00058525,-0.04518309,0.04346612,-0.0034924
 6,-0.28238656,0.19543205,-0.01615868,0.04483206,0.00918806,-0.00090721
 ,0.29937549,0.00084862,0.00215467,-0.00034985,0.00081113,0.00276007,-0
 .00027586,-0.00183653,0.00075458,0.00016071,0.02983217,-0.00164159,0.0
 0170208,0.18996125,-0.36860021,0.02479397,0.03356482,-0.11901394,0.012
 68051,-0.24495014,0.48771389,-0.00006613,-0.00035179,-0.00175566,-0.00
 005096,-0.00026204,-0.00030826,0.00017993,0.00018329,0.00245564,-0.002
 29042,0.00163076,0.01930426,-0.01568007,0.02476597,-0.07830434,-0.0030
 5369,0.01280747,0.02560658,0.02018854,-0.03930087,0.03094783,-0.042367
 73,0.08638280,-0.00726165,-0.04002028,-0.03236638,0.00302644,0.0445594
 0,-0.00312751,0.00006854,-0.12215723,-0.02099634,0.00210745,-0.0251421
 5,-0.02845097,0.00259775,-0.00481295,-0.00098151,0.00013169,-0.0027822
 2,-0.00811320,0.00073867,0.67210491,0.02015555,0.03661326,-0.00225766,
 -0.02775297,-0.04956829,0.00421133,0.04641997,-0.04322751,0.00410519,-
 0.07642744,-0.27038216,0.01788274,-0.02155792,0.00668382,-0.00073111,0
 .00592633,0.00392783,-0.00010812,0.00201005,-0.00804578,0.00085622,-0.
 05882900,0.67020690,-0.00147132,-0.00261286,0.01226873,0.00262238,0.00
 423384,-0.00349812,-0.00425775,0.00437073,0.00621105,0.00694790,0.0175
 8467,-0.07221969,0.00200942,-0.00068538,-0.00284509,-0.00047419,-0.000
 06878,0.00307736,-0.00015597,0.00090642,0.00174453,0.00236586,-0.04617
 861,0.14316093,-0.09210172,0.07537877,-0.00627952,0.02427868,0.0533937
 6,-0.00483562,-0.04693894,0.01084241,-0.00063575,-0.02341475,-0.071179
 55,0.00637663,0.00664003,-0.00489303,0.00040775,-0.00284558,-0.0021964
 0,0.00020413,0.00023667,0.00239115,-0.00020895,-0.29869467,-0.01151813
 ,0.00225800,0.54451534,0.12949336,-0.29765976,0.02214701,-0.02444250,-
 0.04474444,0.00347225,0.01987825,-0.01447631,0.00216369,-0.01864733,0.
 01947354,-0.00113632,-0.00225689,-0.00697376,0.00079901,-0.00149942,0.
 00031465,-0.00006648,0.00223270,-0.00018240,0.00006090,-0.08042361,-0.
 11878577,0.00562355,0.06094582,0.75473574,-0.01101202,0.02243824,-0.03
 819486,0.00197048,0.00305869,-0.00679918,-0.00142802,0.00221391,0.0113
 2351,0.00179044,-0.00085050,0.00546430,0.00017195,0.00081465,0.0019655
 9,0.00014210,-0.00006553,-0.00054888,-0.00019353,0.00005852,0.00062793
 ,0.00829002,0.00525618,-0.05990361,-0.00763089,-0.05646885,0.11774578,
 0.00038080,-0.00266300,0.00026819,-0.01276534,-0.02256744,0.00204375,-
 0.09329853,-0.10663826,0.00963687,0.01082774,0.01510291,-0.00135380,0.
 00171321,0.00099186,-0.00011494,-0.00436275,-0.00053893,0.00007057,0.0
 0039133,-0.00139766,0.00012186,-0.00193119,0.00220528,-0.00014255,-0.0
 0192260,0.00043736,-0.00002877,0.10008799,-0.00055217,0.00195406,0.000
 43998,-0.00025053,0.00249819,-0.00021103,-0.10349349,-0.30700852,0.024
 21661,-0.00928978,-0.01553340,0.00182425,-0.00199934,-0.00361841,0.000
 04249,-0.00177705,0.00295534,-0.00026392,0.00001474,0.00105928,-0.0000
 8739,0.00314430,-0.00043698,0.00066833,0.00030629,0.00042430,-0.000052
 90,0.11453310,0.31826649,0.00008124,0.00045158,0.00690085,0.00009151,-
 0.00009277,0.00008667,0.00936468,0.02423724,-0.03883543,0.00077633,0.0
 0169150,0.00459578,0.00015035,0.00002534,-0.00328173,0.00018000,-0.000
 27124,-0.00014426,-0.00000435,-0.00007721,0.00007665,-0.00022422,0.000
 67232,0.00733095,-0.00001636,-0.00005412,-0.00015912,-0.01043845,-0.02
 644597,0.02550430,-0.00299365,0.00126753,-0.00007794,-0.00271080,0.000
 95561,-0.00004697,-0.00106165,-0.00429273,0.00038574,0.01098032,-0.008
 28512,0.00068973,0.00129545,-0.00048345,0.00002253,0.00006290,0.001244
 06,-0.00010911,-0.00504094,-0.00128431,0.00013617,-0.17214717,0.145336
 50,-0.01202677,-0.01221177,0.01989152,-0.00164991,0.00069273,-0.000548
 51,0.00004585,0.18212130,-0.00079519,0.00085697,0.00022130,-0.00171833
 ,0.00187575,0.00021688,-0.00184566,-0.00436267,0.00046510,0.01851193,-
 0.01513088,0.00160207,0.00289845,-0.00308163,0.00002182,-0.00023689,0.
 00123039,-0.00008589,-0.00004019,0.00295676,-0.00029206,0.14198992,-0.
 22789808,0.01596458,-0.00635874,0.00677392,-0.00009821,0.00080058,-0.0
 0049808,0.00007251,-0.15355309,0.23690171,0.00010282,0.00021018,0.0033
 1422,0.00018822,0.00019981,0.00421999,0.00017095,0.00047717,0.00079228
 ,-0.00165290,0.00174126,0.00414213,-0.00027621,0.00003837,-0.00267976,
 0.00002241,-0.00009129,0.00025193,0.00002672,-0.00028614,-0.00035130,-
 0.01173787,0.01595219,-0.03852564,0.00064982,-0.00023662,0.00528871,-0
 .00007143,0.00007982,0.00037675,0.01263378,-0.01771579,0.02699150,0.00
 605494,0.01914847,-0.00171721,0.00274956,0.00260744,-0.00020132,-0.001
 51977,0.00123909,-0.00010145,-0.00339889,0.00057211,0.00001497,0.00054
 826,-0.00154216,0.00013542,-0.00066890,-0.00016152,0.00001627,-0.00008
 966,0.00017271,-0.00001494,-0.00660872,-0.02596822,0.00232499,-0.09754
 070,-0.10560928,0.00957814,0.00018662,-0.00008757,-0.00000659,0.001013
 28,0.00034721,-0.00005632,0.09927398,-0.00510267,-0.01922863,0.0015557
 0,0.00038474,-0.00146554,0.00078977,0.00142456,-0.00021024,-0.00001196
 ,-0.00036645,0.00210388,0.00060363,0.00042464,0.00019772,0.00003570,-0
 .00001718,-0.00003656,-0.00002506,-0.00017472,0.00008466,-0.00001045,0
 .00177150,0.00091275,0.00019350,-0.10711234,-0.29889971,0.02369581,-0.
 00026580,-0.00006229,-0.00020918,-0.00024799,0.00037585,-0.00036896,0.
 10928173,0.31622812,0.00040271,0.00142110,-0.00187829,-0.00000411,0.00
 077747,0.00752118,-0.00011904,-0.00000943,-0.00025865,0.00009701,0.000
 59763,0.00892506,-0.00003698,0.00004545,0.00062629,0.00000308,-0.00002
 420,-0.00032051,0.00001560,-0.00001229,-0.00004386,-0.00010269,0.00033
 935,0.00319860,0.00971076,0.02369598,-0.03681017,0.00000870,-0.0002102
 6,-0.00245141,-0.00000309,-0.00037230,-0.00382080,-0.00997195,-0.02624
 850,0.02531256\\0.00002656,-0.00001097,-0.00000184,-0.00002331,0.00002
 123,0.00000975,0.00001716,-0.00002777,0.00000810,-0.00000133,0.0000354
 4,-0.00000397,-0.00000381,-0.00002846,-0.00000616,-0.00000102,0.000012
 11,0.00000004,-0.00000921,0.00001132,0.00000319,0.00001846,-0.00001109
 ,-0.00000424,-0.00002388,-0.00000543,-0.00001629,-0.00000020,-0.000003
 58,-0.00000402,-0.00001426,-0.00000007,0.00000998,0.00001484,0.0000072
 8,0.00000547\\\@


 THE WHOLE OF SCIENCE IS NOTHING MORE THAN A REFINEMENT OF EVERYDAY THINKING.
                                                              -- A. EINSTEIN
 Job cpu time:       0 days  1 hours 14 minutes 19.4 seconds.
 Elapsed time:       0 days  0 hours 10 minutes 37.2 seconds.
 File lengths (MBytes):  RWF=    143 Int=      0 D2E=      0 Chk=      7 Scr=      1
 Normal termination of Gaussian 16 at Sat Nov  5 15:43:28 2016.
