 Entering Gaussian System, Link 0=/home/ubuntu/g16/g16
 Input=AcO-_UB3LYP-aug-cc-pVDZ-Opt.gjf
 Output=AcO-_UB3LYP-aug-cc-pVDZ-Opt.log
 Initial command:
 /home/ubuntu/g16/l1.exe "/home/ubuntu/g16/Gau-20392.inp" -scrdir="/home/ubuntu/g16/"
 Entering Link 1 = /home/ubuntu/g16/l1.exe PID=     20394.
  
 Copyright (c) 1988,1990,1992,1993,1995,1998,2003,2009,2016,
            Gaussian, Inc.  All Rights Reserved.
  
 This is part of the Gaussian(R) 16 program.  It is based on
 the Gaussian(R) 09 system (copyright 2009, Gaussian, Inc.),
 the Gaussian(R) 03 system (copyright 2003, Gaussian, Inc.),
 the Gaussian(R) 98 system (copyright 1998, Gaussian, Inc.),
 the Gaussian(R) 94 system (copyright 1995, Gaussian, Inc.),
 the Gaussian 92(TM) system (copyright 1992, Gaussian, Inc.),
 the Gaussian 90(TM) system (copyright 1990, Gaussian, Inc.),
 the Gaussian 88(TM) system (copyright 1988, Gaussian, Inc.),
 the Gaussian 86(TM) system (copyright 1986, Carnegie Mellon
 University), and the Gaussian 82(TM) system (copyright 1983,
 Carnegie Mellon University). Gaussian is a federally registered
 trademark of Gaussian, Inc.
  
 This software contains proprietary and confidential information,
 including trade secrets, belonging to Gaussian, Inc.
  
 This software is provided under written license and may be
 used, copied, transmitted, or stored only in accord with that
 written license.
  
 The following legend is applicable only to US Government
 contracts under FAR:
  
                    RESTRICTED RIGHTS LEGEND
  
 Use, reproduction and disclosure by the US Government is
 subject to restrictions as set forth in subparagraphs (a)
 and (c) of the Commercial Computer Software - Restricted
 Rights clause in FAR 52.227-19.
  
 Gaussian, Inc.
 340 Quinnipiac St., Bldg. 40, Wallingford CT 06492
  
  
 ---------------------------------------------------------------
 Warning -- This program may not be used in any manner that
 competes with the business of Gaussian, Inc. or will provide
 assistance to any competitor of Gaussian, Inc.  The licensee
 of this program is prohibited from giving any competitor of
 Gaussian, Inc. access to this program.  By using this program,
 the user acknowledges that Gaussian, Inc. is engaged in the
 business of creating and licensing software in the field of
 computational chemistry and represents and warrants to the
 licensee that it is not a competitor of Gaussian, Inc. and that
 it will not use this program in any manner prohibited above.
 ---------------------------------------------------------------
  

 Cite this work as:
 Gaussian 16, Revision A.03,
 M. J. Frisch, G. W. Trucks, H. B. Schlegel, G. E. Scuseria, 
 M. A. Robb, J. R. Cheeseman, G. Scalmani, V. Barone, 
 G. A. Petersson, H. Nakatsuji, X. Li, M. Caricato, A. V. Marenich, 
 J. Bloino, B. G. Janesko, R. Gomperts, B. Mennucci, H. P. Hratchian, 
 J. V. Ortiz, A. F. Izmaylov, J. L. Sonnenberg, D. Williams-Young, 
 F. Ding, F. Lipparini, F. Egidi, J. Goings, B. Peng, A. Petrone, 
 T. Henderson, D. Ranasinghe, V. G. Zakrzewski, J. Gao, N. Rega, 
 G. Zheng, W. Liang, M. Hada, M. Ehara, K. Toyota, R. Fukuda, 
 J. Hasegawa, M. Ishida, T. Nakajima, Y. Honda, O. Kitao, H. Nakai, 
 T. Vreven, K. Throssell, J. A. Montgomery, Jr., J. E. Peralta, 
 F. Ogliaro, M. J. Bearpark, J. J. Heyd, E. N. Brothers, K. N. Kudin, 
 V. N. Staroverov, T. A. Keith, R. Kobayashi, J. Normand, 
 K. Raghavachari, A. P. Rendell, J. C. Burant, S. S. Iyengar, 
 J. Tomasi, M. Cossi, J. M. Millam, M. Klene, C. Adamo, R. Cammi, 
 J. W. Ochterski, R. L. Martin, K. Morokuma, O. Farkas, 
 J. B. Foresman, and D. J. Fox, Gaussian, Inc., Wallingford CT, 2016.
 
 ******************************************
 Gaussian 16:  ES64L-G16RevA.03 25-Dec-2016
                 1-Aug-2020 
 ******************************************
 %chk=AcO-_UB3LYP-aug-cc-pVDZ-Opt.chk
 %mem=500MW
 %nproc=7
 Will use up to    7 processors via shared memory.
 ----------------------------------------------------------------------
 #p opt=(maxcycles=777) freq ub3lyp/aug-cc-pVDZ pop=(Bonding,AllOrbital
 s,mk,no,nboread)
 ----------------------------------------------------------------------
 1/6=777,18=20,19=15,26=3,38=1/1,3;
 2/9=110,12=2,17=6,18=5,40=1/2;
 3/5=16,7=10,11=2,25=1,30=1,71=1,74=-5,116=2/1,2,3;
 4//1;
 5/5=2,38=5/2;
 6/7=2,8=2,9=2,10=2,15=8,20=1,22=-1,27=20,28=1,31=1,40=2,96=-1/1,2,7;
 7//1,2,3,16;
 1/6=777,18=20,19=15,26=3/3(2);
 2/9=110/2;
 99//99;
 2/9=110/2;
 3/5=16,7=10,11=2,25=1,30=1,71=1,74=-5,116=2/1,2,3;
 4/5=5,16=3,69=1/1;
 5/5=2,38=5/2;
 7//1,2,3,16;
 1/6=777,18=20,19=15,26=3/3(-5);
 2/9=110/2;
 6/7=2,8=2,9=2,10=2,15=8,19=2,20=1,22=-1,27=20,28=1,31=1,40=2,96=-1/1,2,7;
 99/9=1/99;
 Leave Link    1 at Sat Aug  1 13:02:37 2020, MaxMem=   524288000 cpu:               0.2 elap:               0.0
 (Enter /home/ubuntu/g16/l101.exe)
 -----------------------
 AcO-_UB3LYP-aug-cc-pVDZ
 -----------------------
 Symbolic Z-matrix:
 Charge = -1 Multiplicity = 1
 C                     4.12482  -0.62716   2.06204 
 H                     4.50388  -1.65909   2.08994 
 H                     4.47311  -0.13192   1.14123 
 H                     3.02352  -0.63987   2.0253 
 C                     4.59708   0.18934   3.30436 
 O                     5.32549  -0.42317   4.13237 
 O                     4.19479   1.38487   3.34436 
 
 ITRead=  0  0  0  0  0  0  0
 MicOpt= -1 -1 -1 -1 -1 -1 -1
 NAtoms=      7 NQM=        7 NQMF=       0 NMMI=      0 NMMIF=      0
                NMic=       0 NMicF=      0.
                    Isotopes and Nuclear Properties:
 (Nuclear quadrupole moments (NQMom) in fm**2, nuclear magnetic moments (NMagM)
  in nuclear magnetons)

  Atom         1           2           3           4           5           6           7
 IAtWgt=          12           1           1           1          12          16          16
 AtmWgt=  12.0000000   1.0078250   1.0078250   1.0078250  12.0000000  15.9949146  15.9949146
 NucSpn=           0           1           1           1           0           0           0
 AtZEff=  -0.0000000  -0.0000000  -0.0000000  -0.0000000  -0.0000000  -0.0000000  -0.0000000
 NQMom=    0.0000000   0.0000000   0.0000000   0.0000000   0.0000000   0.0000000   0.0000000
 NMagM=    0.0000000   2.7928460   2.7928460   2.7928460   0.0000000   0.0000000   0.0000000
 AtZNuc=   6.0000000   1.0000000   1.0000000   1.0000000   6.0000000   8.0000000   8.0000000
 Leave Link  101 at Sat Aug  1 13:02:37 2020, MaxMem=   524288000 cpu:               0.6 elap:               0.1
 (Enter /home/ubuntu/g16/l103.exe)

 GradGradGradGradGradGradGradGradGradGradGradGradGradGradGradGradGradGrad
 Berny optimization.
 Initialization pass.
                           ----------------------------
                           !    Initial Parameters    !
                           ! (Angstroms and Degrees)  !
 --------------------------                            --------------------------
 ! Name  Definition              Value          Derivative Info.                !
 --------------------------------------------------------------------------------
 ! R1    R(1,2)                  1.0997         estimate D2E/DX2                !
 ! R2    R(1,3)                  1.102          estimate D2E/DX2                !
 ! R3    R(1,4)                  1.102          estimate D2E/DX2                !
 ! R4    R(1,5)                  1.5598         estimate D2E/DX2                !
 ! R5    R(5,6)                  1.2615         estimate D2E/DX2                !
 ! R6    R(5,7)                  1.262          estimate D2E/DX2                !
 ! A1    A(2,1,3)              109.5091         estimate D2E/DX2                !
 ! A2    A(2,1,4)              109.5422         estimate D2E/DX2                !
 ! A3    A(2,1,5)              111.5079         estimate D2E/DX2                !
 ! A4    A(3,1,4)              107.0481         estimate D2E/DX2                !
 ! A5    A(3,1,5)              109.5456         estimate D2E/DX2                !
 ! A6    A(4,1,5)              109.5827         estimate D2E/DX2                !
 ! A7    A(1,5,6)              116.3229         estimate D2E/DX2                !
 ! A8    A(1,5,7)              115.1256         estimate D2E/DX2                !
 ! A9    A(6,5,7)              128.5514         estimate D2E/DX2                !
 ! D1    D(2,1,5,6)              0.3253         estimate D2E/DX2                !
 ! D2    D(2,1,5,7)           -179.7006         estimate D2E/DX2                !
 ! D3    D(3,1,5,6)           -121.0607         estimate D2E/DX2                !
 ! D4    D(3,1,5,7)             58.9135         estimate D2E/DX2                !
 ! D5    D(4,1,5,6)            121.7782         estimate D2E/DX2                !
 ! D6    D(4,1,5,7)            -58.2477         estimate D2E/DX2                !
 --------------------------------------------------------------------------------
 Trust Radius=3.00D-01 FncErr=1.00D-07 GrdErr=1.00D-06 EigMax=2.50D+02 EigMin=1.00D-04
 Number of steps in this run=    100 maximum allowed number of steps=    100.
 GradGradGradGradGradGradGradGradGradGradGradGradGradGradGradGradGradGrad

 Leave Link  103 at Sat Aug  1 13:02:37 2020, MaxMem=   524288000 cpu:               0.1 elap:               0.0
 (Enter /home/ubuntu/g16/l202.exe)
                          Input orientation:                          
 ---------------------------------------------------------------------
 Center     Atomic      Atomic             Coordinates (Angstroms)
 Number     Number       Type             X           Y           Z
 ---------------------------------------------------------------------
      1          6           0        4.124820   -0.627160    2.062040
      2          1           0        4.503880   -1.659090    2.089940
      3          1           0        4.473110   -0.131920    1.141230
      4          1           0        3.023520   -0.639870    2.025300
      5          6           0        4.597080    0.189340    3.304360
      6          8           0        5.325490   -0.423170    4.132370
      7          8           0        4.194790    1.384870    3.344360
 ---------------------------------------------------------------------
                    Distance matrix (angstroms):
                    1          2          3          4          5
     1  C    0.000000
     2  H    1.099702   0.000000
     3  H    1.102025   1.798123   0.000000
     4  H    1.101986   1.798459   1.772260   0.000000
     5  C    1.559827   2.213639   2.190367   2.190816   0.000000
     6  O    2.401976   2.524690   3.123827   3.128221   1.261487
     7  O    2.386945   3.306781   2.689218   2.685398   1.262034
                    6          7
     6  O    0.000000
     7  O    2.273423   0.000000
 Stoichiometry    C2H3O2(1-)
 Framework group  C1[X(C2H3O2)]
 Deg. of freedom    15
 Full point group                 C1      NOp   1
 Largest Abelian subgroup         C1      NOp   1
 Largest concise Abelian subgroup C1      NOp   1
                         Standard orientation:                         
 ---------------------------------------------------------------------
 Center     Atomic      Atomic             Coordinates (Angstroms)
 Number     Number       Type             X           Y           Z
 ---------------------------------------------------------------------
      1          6           0        1.352064   -0.045037   -0.000082
      2          1           0        1.724789   -1.079633   -0.005631
      3          1           0        1.736400    0.479841    0.889439
      4          1           0        1.737486    0.490362   -0.882789
      5          6           0       -0.207080    0.001130   -0.000184
      6          8           0       -0.799681   -1.112500    0.000037
      7          8           0       -0.708892    1.159109    0.000035
 ---------------------------------------------------------------------
 Rotational constants (GHZ):          11.3475001           9.9218624           5.4749793
 Leave Link  202 at Sat Aug  1 13:02:37 2020, MaxMem=   524288000 cpu:               0.1 elap:               0.0
 (Enter /home/ubuntu/g16/l301.exe)
 Standard basis: Aug-CC-pVDZ (5D, 7F)
 Ernie: Thresh=  0.10000D-02 Tol=  0.10000D-05 Strict=F.
 Ernie:  8 primitive shells out of 121 were deleted.
 There are   127 symmetry adapted cartesian basis functions of A   symmetry.
 There are   119 symmetry adapted basis functions of A   symmetry.
   119 basis functions,   205 primitive gaussians,   127 cartesian basis functions
    16 alpha electrons       16 beta electrons
       nuclear repulsion energy       111.2744925692 Hartrees.
 IExCor=  402 DFT=T Ex+Corr=B3LYP ExCW=0 ScaHFX=  0.200000
 ScaDFX=  0.800000  0.720000  1.000000  0.810000 ScalE2=  1.000000  1.000000
 IRadAn=      5 IRanWt=     -1 IRanGd=            0 ICorTp=0 IEmpDi=  4
 NAtoms=    7 NActive=    7 NUniq=    7 SFac= 1.00D+00 NAtFMM=   60 NAOKFM=F Big=F
 Integral buffers will be    131072 words long.
 Raffenetti 2 integral format.
 Two-electron integral symmetry is turned on.
 Leave Link  301 at Sat Aug  1 13:02:37 2020, MaxMem=   524288000 cpu:               0.2 elap:               0.0
 (Enter /home/ubuntu/g16/l302.exe)
 NPDir=0 NMtPBC=     1 NCelOv=     1 NCel=       1 NClECP=     1 NCelD=      1
         NCelK=      1 NCelE2=     1 NClLst=     1 CellRange=     0.0.
 One-electron integrals computed using PRISM.
 One-electron integral symmetry used in STVInt
 NBasis=   119 RedAO= T EigKep=  1.95D-04  NBF=   119
 NBsUse=   119 1.00D-06 EigRej= -1.00D+00 NBFU=   119
 Precomputing XC quadrature grid using
 IXCGrd= 4 IRadAn=           5 IRanWt=          -1 IRanGd=           0 AccXCQ= 0.00D+00.
 Generated NRdTot=       0 NPtTot=           0 NUsed=           0 NTot=          32
 NSgBfM=   127   127   127   127   127 MxSgAt=     7 MxSgA2=     7.
 Leave Link  302 at Sat Aug  1 13:02:38 2020, MaxMem=   524288000 cpu:               1.0 elap:               0.2
 (Enter /home/ubuntu/g16/l303.exe)
 DipDrv:  MaxL=1.
 Leave Link  303 at Sat Aug  1 13:02:38 2020, MaxMem=   524288000 cpu:               0.2 elap:               0.0
 (Enter /home/ubuntu/g16/l401.exe)
 ExpMin= 2.97D-02 ExpMax= 1.17D+04 ExpMxC= 4.01D+02 IAcc=3 IRadAn=         5 AccDes= 0.00D+00
 Harris functional with IExCor=  402 and IRadAn=       5 diagonalized for initial guess.
 HarFok:  IExCor=  402 AccDes= 0.00D+00 IRadAn=         5 IDoV= 1 UseB2=F ITyADJ=14
 ICtDFT=  3500011 ScaDFX=  1.000000  1.000000  1.000000  1.000000
 FoFCou: FMM=F IPFlag=           0 FMFlag=      100000 FMFlg1=           0
         NFxFlg=           0 DoJE=T BraDBF=F KetDBF=T FulRan=T
         wScrn=  0.000000 ICntrl=       500 IOpCl=  0 I1Cent=   200000004 NGrid=           0
         NMat0=    1 NMatS0=      1 NMatT0=    0 NMatD0=    1 NMtDS0=    0 NMtDT0=    0
 Petite list used in FoFCou.
 Harris En= -228.767476729673    
 JPrj=0 DoOrth=F DoCkMO=F.
 Initial guess <Sx>= 0.0000 <Sy>= 0.0000 <Sz>= 0.0000 <S**2>=-0.0000 S=-0.0000
 Leave Link  401 at Sat Aug  1 13:02:38 2020, MaxMem=   524288000 cpu:               4.4 elap:               0.6
 (Enter /home/ubuntu/g16/l502.exe)
 Keep R1 and R2 ints in memory in canonical form, NReq=57640152.
 FoFCou: FMM=F IPFlag=           0 FMFlag=           0 FMFlg1=           0
         NFxFlg=           0 DoJE=F BraDBF=F KetDBF=F FulRan=T
         wScrn=  0.000000 ICntrl=       600 IOpCl=  0 I1Cent=           0 NGrid=           0
         NMat0=    1 NMatS0=   7140 NMatT0=    0 NMatD0=    1 NMtDS0=    0 NMtDT0=    0
 Symmetry not used in FoFCou.
 Two-electron integral symmetry not used.
 UHF open shell SCF:
 Using DIIS extrapolation, IDIIS=  1040.
 NGot=   524288000 LenX=   473266792 LenY=   473250222
 Requested convergence on RMS density matrix=1.00D-08 within 128 cycles.
 Requested convergence on MAX density matrix=1.00D-06.
 Requested convergence on             energy=1.00D-06.
 No special actions if energy rises.

 Cycle   1  Pass 1  IDiag  1:
 E= -228.342969617490    
 DIIS: error= 3.59D-02 at cycle   1 NSaved=   1.
 NSaved= 1 IEnMin= 1 EnMin= -228.342969617490     IErMin= 1 ErrMin= 3.59D-02
 ErrMax= 3.59D-02  0.00D+00 EMaxC= 1.00D-01 BMatC= 9.74D-01 BMatP= 9.74D-01
 IDIUse=3 WtCom= 6.41D-01 WtEn= 3.59D-01
 Coeff-Com:  0.100D+01
 Coeff-En:   0.100D+01
 Coeff:      0.100D+01
 Gap=     0.195 Goal=   None    Shift=    0.000
 Gap=     0.195 Goal=   None    Shift=    0.000
 GapD=    0.195 DampG=1.000 DampE=0.500 DampFc=0.5000 IDamp=-1.
 Damping current iteration by 5.00D-01
 RMSDP=2.55D-01 MaxDP=1.38D+01              OVMax= 8.77D-01

 Cycle   2  Pass 1  IDiag  1:
 E= -227.993807437590     Delta-E=        0.349162179900 Rises=F Damp=T
 DIIS: error= 3.12D-02 at cycle   2 NSaved=   2.
 NSaved= 2 IEnMin= 1 EnMin= -228.342969617490     IErMin= 2 ErrMin= 3.12D-02
 ErrMax= 3.12D-02  0.00D+00 EMaxC= 1.00D-01 BMatC= 6.92D-01 BMatP= 9.74D-01
 IDIUse=3 WtCom= 6.88D-01 WtEn= 3.12D-01
 Coeff-Com:  0.452D+00 0.548D+00
 Coeff-En:   0.758D+00 0.242D+00
 Coeff:      0.547D+00 0.453D+00
 Gap=     0.131 Goal=   None    Shift=    0.000
 Gap=     0.131 Goal=   None    Shift=    0.000
 RMSDP=1.27D-01 MaxDP=6.92D+00 DE= 3.49D-01 OVMax= 9.82D-01

 Cycle   3  Pass 1  IDiag  1:
 E= -228.521172115485     Delta-E=       -0.527364677895 Rises=F Damp=F
 DIIS: error= 1.52D-02 at cycle   3 NSaved=   3.
 NSaved= 3 IEnMin= 3 EnMin= -228.521172115485     IErMin= 3 ErrMin= 1.52D-02
 ErrMax= 1.52D-02  0.00D+00 EMaxC= 1.00D-01 BMatC= 1.46D-01 BMatP= 6.92D-01
 IDIUse=3 WtCom= 8.48D-01 WtEn= 1.52D-01
 Coeff-Com:  0.235D+00 0.322D+00 0.443D+00
 Coeff-En:   0.000D+00 0.000D+00 0.100D+01
 Coeff:      0.199D+00 0.273D+00 0.528D+00
 Gap=     0.187 Goal=   None    Shift=    0.000
 Gap=     0.187 Goal=   None    Shift=    0.000
 RMSDP=1.83D-03 MaxDP=5.33D-02 DE=-5.27D-01 OVMax= 5.37D-02

 Cycle   4  Pass 1  IDiag  1:
 E= -228.555726686148     Delta-E=       -0.034554570663 Rises=F Damp=F
 DIIS: error= 6.05D-03 at cycle   4 NSaved=   4.
 NSaved= 4 IEnMin= 4 EnMin= -228.555726686148     IErMin= 4 ErrMin= 6.05D-03
 ErrMax= 6.05D-03  0.00D+00 EMaxC= 1.00D-01 BMatC= 2.44D-02 BMatP= 1.46D-01
 IDIUse=3 WtCom= 9.40D-01 WtEn= 6.05D-02
 Coeff-Com: -0.780D-01 0.787D-01 0.114D+00 0.885D+00
 Coeff-En:   0.000D+00 0.000D+00 0.000D+00 0.100D+01
 Coeff:     -0.733D-01 0.740D-01 0.108D+00 0.892D+00
 Gap=     0.149 Goal=   None    Shift=    0.000
 Gap=     0.149 Goal=   None    Shift=    0.000
 RMSDP=9.26D-04 MaxDP=1.31D-02 DE=-3.46D-02 OVMax= 2.38D-02

 Cycle   5  Pass 1  IDiag  1:
 E= -228.562238914454     Delta-E=       -0.006512228306 Rises=F Damp=F
 DIIS: error= 1.00D-03 at cycle   5 NSaved=   5.
 NSaved= 5 IEnMin= 5 EnMin= -228.562238914454     IErMin= 5 ErrMin= 1.00D-03
 ErrMax= 1.00D-03  0.00D+00 EMaxC= 1.00D-01 BMatC= 8.39D-04 BMatP= 2.44D-02
 IDIUse=3 WtCom= 9.90D-01 WtEn= 1.00D-02
 Coeff-Com: -0.185D-01 0.636D-02-0.556D-01 0.716D-01 0.996D+00
 Coeff-En:   0.000D+00 0.000D+00 0.000D+00 0.000D+00 0.100D+01
 Coeff:     -0.183D-01 0.630D-02-0.551D-01 0.709D-01 0.996D+00
 Gap=     0.145 Goal=   None    Shift=    0.000
 Gap=     0.145 Goal=   None    Shift=    0.000
 RMSDP=3.11D-04 MaxDP=6.07D-03 DE=-6.51D-03 OVMax= 8.18D-03

 Cycle   6  Pass 1  IDiag  1:
 E= -228.562464471823     Delta-E=       -0.000225557369 Rises=F Damp=F
 DIIS: error= 4.40D-04 at cycle   6 NSaved=   6.
 NSaved= 6 IEnMin= 6 EnMin= -228.562464471823     IErMin= 6 ErrMin= 4.40D-04
 ErrMax= 4.40D-04  0.00D+00 EMaxC= 1.00D-01 BMatC= 1.73D-04 BMatP= 8.39D-04
 IDIUse=3 WtCom= 9.96D-01 WtEn= 4.40D-03
 Coeff-Com: -0.551D-02 0.237D-02-0.388D-01-0.361D-02 0.583D+00 0.462D+00
 Coeff-En:   0.000D+00 0.000D+00 0.000D+00 0.000D+00 0.000D+00 0.100D+01
 Coeff:     -0.549D-02 0.236D-02-0.386D-01-0.359D-02 0.581D+00 0.465D+00
 Gap=     0.146 Goal=   None    Shift=    0.000
 Gap=     0.146 Goal=   None    Shift=    0.000
 RMSDP=6.49D-05 MaxDP=1.57D-03 DE=-2.26D-04 OVMax= 2.83D-03

 Cycle   7  Pass 1  IDiag  1:
 E= -228.562495034006     Delta-E=       -0.000030562184 Rises=F Damp=F
 DIIS: error= 2.13D-04 at cycle   7 NSaved=   7.
 NSaved= 7 IEnMin= 7 EnMin= -228.562495034006     IErMin= 7 ErrMin= 2.13D-04
 ErrMax= 2.13D-04  0.00D+00 EMaxC= 1.00D-01 BMatC= 3.09D-05 BMatP= 1.73D-04
 IDIUse=3 WtCom= 9.98D-01 WtEn= 2.13D-03
 Coeff-Com: -0.301D-03 0.953D-03-0.159D-01-0.127D-01 0.202D+00 0.310D+00
 Coeff-Com:  0.516D+00
 Coeff-En:   0.000D+00 0.000D+00 0.000D+00 0.000D+00 0.000D+00 0.136D+00
 Coeff-En:   0.864D+00
 Coeff:     -0.300D-03 0.951D-03-0.159D-01-0.127D-01 0.202D+00 0.309D+00
 Coeff:      0.517D+00
 Gap=     0.146 Goal=   None    Shift=    0.000
 Gap=     0.146 Goal=   None    Shift=    0.000
 RMSDP=2.84D-05 MaxDP=6.50D-04 DE=-3.06D-05 OVMax= 1.32D-03

 Cycle   8  Pass 1  IDiag  1:
 E= -228.562500359474     Delta-E=       -0.000005325468 Rises=F Damp=F
 DIIS: error= 6.91D-05 at cycle   8 NSaved=   8.
 NSaved= 8 IEnMin= 8 EnMin= -228.562500359474     IErMin= 8 ErrMin= 6.91D-05
 ErrMax= 6.91D-05  0.00D+00 EMaxC= 1.00D-01 BMatC= 5.07D-06 BMatP= 3.09D-05
 IDIUse=1 WtCom= 1.00D+00 WtEn= 0.00D+00
 Coeff-Com:  0.442D-03 0.363D-04-0.565D-02-0.824D-02 0.523D-01 0.136D+00
 Coeff-Com:  0.341D+00 0.484D+00
 Coeff:      0.442D-03 0.363D-04-0.565D-02-0.824D-02 0.523D-01 0.136D+00
 Coeff:      0.341D+00 0.484D+00
 Gap=     0.145 Goal=   None    Shift=    0.000
 Gap=     0.145 Goal=   None    Shift=    0.000
 RMSDP=1.25D-05 MaxDP=2.75D-04 DE=-5.33D-06 OVMax= 3.45D-04

 Cycle   9  Pass 1  IDiag  1:
 E= -228.562501507531     Delta-E=       -0.000001148057 Rises=F Damp=F
 DIIS: error= 9.65D-06 at cycle   9 NSaved=   9.
 NSaved= 9 IEnMin= 9 EnMin= -228.562501507531     IErMin= 9 ErrMin= 9.65D-06
 ErrMax= 9.65D-06  0.00D+00 EMaxC= 1.00D-01 BMatC= 3.75D-08 BMatP= 5.07D-06
 IDIUse=1 WtCom= 1.00D+00 WtEn= 0.00D+00
 Coeff-Com:  0.760D-04-0.192D-04 0.260D-04-0.258D-03-0.361D-02 0.296D-02
 Coeff-Com:  0.262D-01 0.102D+00 0.873D+00
 Coeff:      0.760D-04-0.192D-04 0.260D-04-0.258D-03-0.361D-02 0.296D-02
 Coeff:      0.262D-01 0.102D+00 0.873D+00
 Gap=     0.145 Goal=   None    Shift=    0.000
 Gap=     0.145 Goal=   None    Shift=    0.000
 RMSDP=2.44D-06 MaxDP=5.11D-05 DE=-1.15D-06 OVMax= 7.80D-05

 Cycle  10  Pass 1  IDiag  1:
 E= -228.562501519445     Delta-E=       -0.000000011913 Rises=F Damp=F
 DIIS: error= 1.05D-06 at cycle  10 NSaved=  10.
 NSaved=10 IEnMin=10 EnMin= -228.562501519445     IErMin=10 ErrMin= 1.05D-06
 ErrMax= 1.05D-06  0.00D+00 EMaxC= 1.00D-01 BMatC= 1.46D-09 BMatP= 3.75D-08
 IDIUse=1 WtCom= 1.00D+00 WtEn= 0.00D+00
 Coeff-Com:  0.588D-05-0.113D-04 0.156D-03 0.201D-03-0.182D-02-0.217D-02
 Coeff-Com: -0.282D-02 0.936D-02 0.189D+00 0.809D+00
 Coeff:      0.588D-05-0.113D-04 0.156D-03 0.201D-03-0.182D-02-0.217D-02
 Coeff:     -0.282D-02 0.936D-02 0.189D+00 0.809D+00
 Gap=     0.145 Goal=   None    Shift=    0.000
 Gap=     0.145 Goal=   None    Shift=    0.000
 RMSDP=5.06D-07 MaxDP=1.23D-05 DE=-1.19D-08 OVMax= 1.46D-05

 Cycle  11  Pass 1  IDiag  1:
 E= -228.562501519827     Delta-E=       -0.000000000382 Rises=F Damp=F
 DIIS: error= 4.52D-07 at cycle  11 NSaved=  11.
 NSaved=11 IEnMin=11 EnMin= -228.562501519827     IErMin=11 ErrMin= 4.52D-07
 ErrMax= 4.52D-07  0.00D+00 EMaxC= 1.00D-01 BMatC= 1.81D-10 BMatP= 1.46D-09
 IDIUse=1 WtCom= 1.00D+00 WtEn= 0.00D+00
 Coeff-Com:  0.246D-05-0.421D-05 0.489D-04 0.727D-04-0.268D-03-0.803D-03
 Coeff-Com: -0.183D-02-0.212D-02 0.790D-02 0.163D+00 0.834D+00
 Coeff:      0.246D-05-0.421D-05 0.489D-04 0.727D-04-0.268D-03-0.803D-03
 Coeff:     -0.183D-02-0.212D-02 0.790D-02 0.163D+00 0.834D+00
 Gap=     0.145 Goal=   None    Shift=    0.000
 Gap=     0.145 Goal=   None    Shift=    0.000
 RMSDP=1.01D-07 MaxDP=1.92D-06 DE=-3.82D-10 OVMax= 3.30D-06

 Cycle  12  Pass 1  IDiag  1:
 E= -228.562501519869     Delta-E=       -0.000000000043 Rises=F Damp=F
 DIIS: error= 1.35D-07 at cycle  12 NSaved=  12.
 NSaved=12 IEnMin=12 EnMin= -228.562501519869     IErMin=12 ErrMin= 1.35D-07
 ErrMax= 1.35D-07  0.00D+00 EMaxC= 1.00D-01 BMatC= 1.61D-11 BMatP= 1.81D-10
 IDIUse=1 WtCom= 1.00D+00 WtEn= 0.00D+00
 Coeff-Com:  0.157D-05-0.584D-06 0.911D-06 0.444D-05 0.812D-04-0.870D-05
 Coeff-Com: -0.855D-04-0.329D-03-0.729D-02-0.205D-01 0.994D-01 0.929D+00
 Coeff:      0.157D-05-0.584D-06 0.911D-06 0.444D-05 0.812D-04-0.870D-05
 Coeff:     -0.855D-04-0.329D-03-0.729D-02-0.205D-01 0.994D-01 0.929D+00
 Gap=     0.145 Goal=   None    Shift=    0.000
 Gap=     0.145 Goal=   None    Shift=    0.000
 RMSDP=2.87D-08 MaxDP=3.77D-07 DE=-4.29D-11 OVMax= 8.14D-07

 Cycle  13  Pass 1  IDiag  1:
 E= -228.562501519879     Delta-E=       -0.000000000010 Rises=F Damp=F
 DIIS: error= 1.64D-08 at cycle  13 NSaved=  13.
 NSaved=13 IEnMin=13 EnMin= -228.562501519879     IErMin=13 ErrMin= 1.64D-08
 ErrMax= 1.64D-08  0.00D+00 EMaxC= 1.00D-01 BMatC= 2.33D-13 BMatP= 1.61D-11
 IDIUse=1 WtCom= 1.00D+00 WtEn= 0.00D+00
 Coeff-Com:  0.305D-06-0.728D-07-0.566D-06 0.408D-06 0.181D-04 0.108D-04
 Coeff-Com:  0.199D-04 0.325D-04-0.921D-03-0.534D-02-0.526D-02 0.136D+00
 Coeff-Com:  0.875D+00
 Coeff:      0.305D-06-0.728D-07-0.566D-06 0.408D-06 0.181D-04 0.108D-04
 Coeff:      0.199D-04 0.325D-04-0.921D-03-0.534D-02-0.526D-02 0.136D+00
 Coeff:      0.875D+00
 Gap=     0.145 Goal=   None    Shift=    0.000
 Gap=     0.145 Goal=   None    Shift=    0.000
 RMSDP=3.73D-09 MaxDP=6.36D-08 DE=-9.66D-12 OVMax= 7.66D-08

 SCF Done:  E(UB3LYP) =  -228.562501520     A.U. after   13 cycles
            NFock= 13  Conv=0.37D-08     -V/T= 2.0064
 <Sx>= 0.0000 <Sy>= 0.0000 <Sz>= 0.0000 <S**2>=-0.0000 S=-0.0000
 <L.S>= 0.000000000000E+00
 KE= 2.271149178762D+02 PE=-7.667672808861D+02 EE= 1.998153689208D+02
 Annihilation of the first spin contaminant:
 S**2 before annihilation    -0.0000,   after    -0.0000
 Leave Link  502 at Sat Aug  1 13:02:51 2020, MaxMem=   524288000 cpu:              83.3 elap:              12.4
 (Enter /home/ubuntu/g16/l601.exe)
 Copying SCF densities to generalized density rwf, IOpCl= 1 IROHF=0.

 **********************************************************************

            Population analysis using the SCF density.

 **********************************************************************

 Orbital symmetries:
 Alpha Orbitals:
       Occupied  (A) (A) (A) (A) (A) (A) (A) (A) (A) (A) (A) (A)
                 (A) (A) (A) (A)
       Virtual   (A) (A) (A) (A) (A) (A) (A) (A) (A) (A) (A) (A)
                 (A) (A) (A) (A) (A) (A) (A) (A) (A) (A) (A) (A)
                 (A) (A) (A) (A) (A) (A) (A) (A) (A) (A) (A) (A)
                 (A) (A) (A) (A) (A) (A) (A) (A) (A) (A) (A) (A)
                 (A) (A) (A) (A) (A) (A) (A) (A) (A) (A) (A) (A)
                 (A) (A) (A) (A) (A) (A) (A) (A) (A) (A) (A) (A)
                 (A) (A) (A) (A) (A) (A) (A) (A) (A) (A) (A) (A)
                 (A) (A) (A) (A) (A) (A) (A) (A) (A) (A) (A) (A)
                 (A) (A) (A) (A) (A) (A) (A)
 Beta  Orbitals:
       Occupied  (A) (A) (A) (A) (A) (A) (A) (A) (A) (A) (A) (A)
                 (A) (A) (A) (A)
       Virtual   (A) (A) (A) (A) (A) (A) (A) (A) (A) (A) (A) (A)
                 (A) (A) (A) (A) (A) (A) (A) (A) (A) (A) (A) (A)
                 (A) (A) (A) (A) (A) (A) (A) (A) (A) (A) (A) (A)
                 (A) (A) (A) (A) (A) (A) (A) (A) (A) (A) (A) (A)
                 (A) (A) (A) (A) (A) (A) (A) (A) (A) (A) (A) (A)
                 (A) (A) (A) (A) (A) (A) (A) (A) (A) (A) (A) (A)
                 (A) (A) (A) (A) (A) (A) (A) (A) (A) (A) (A) (A)
                 (A) (A) (A) (A) (A) (A) (A) (A) (A) (A) (A) (A)
                 (A) (A) (A) (A) (A) (A) (A)
 The electronic state is 1-A.
     Natural Orbital Coefficients:
                           1         2         3         4         5
     Eigenvalues --     2.00000   2.00000   2.00000   2.00000   2.00000
   1 1   C  1S          0.03261  -0.05661  -0.01692  -0.00709  -0.08587
   2        2S         -0.11316  -0.01096  -0.00194  -0.05737   0.10748
   3        3S         -0.18913  -0.03197   0.02345  -0.03920   0.17163
   4        4S         -0.13069  -0.03710   0.02098   0.00774   0.14139
   5        5PX         0.08518  -0.00267  -0.06591   0.13597  -0.26094
   6        5PY         0.08525   0.02466   0.07645  -0.06962   0.15183
   7        5PZ        -0.01858   0.00363  -0.08749  -0.00807  -0.10049
   8        6PX         0.11111   0.02321  -0.02278   0.01929  -0.11730
   9        6PY         0.00843  -0.00447  -0.01485   0.00002  -0.03815
  10        6PZ         0.00013   0.00388  -0.00354  -0.00257  -0.00645
  11        7PX         0.08024   0.02316  -0.00769  -0.00441  -0.06568
  12        7PY         0.01731  -0.00349   0.00507  -0.00971  -0.00753
  13        7PZ         0.00172   0.00194   0.00510  -0.00113   0.00476
  14        8D 0       -0.00147  -0.00154   0.00103   0.00167   0.00178
  15        8D+1       -0.00005  -0.00063  -0.00062  -0.00145   0.00166
  16        8D-1       -0.00081  -0.00030  -0.00333  -0.00009  -0.00351
  17        8D+2        0.00433   0.00257   0.00454  -0.00907   0.01370
  18        8D-2        0.00404   0.00113   0.00431   0.00151   0.00976
  19        9D 0       -0.01631  -0.00255  -0.01033  -0.00205  -0.01616
  20        9D+1        0.00089  -0.00130   0.00521   0.00084   0.00698
  21        9D-1        0.00297  -0.00010   0.01314   0.00169   0.01413
  22        9D+2       -0.01568  -0.00489  -0.00928   0.00834  -0.01894
  23        9D-2        0.00090  -0.00552   0.00683  -0.00833   0.00820
  24 2   H  1S         -0.09271  -0.02045  -0.08798   0.07368  -0.17382
  25        2S         -0.05412  -0.03459  -0.10257   0.06826  -0.25271
  26        3S          0.02416   0.00124  -0.00065   0.00477  -0.03822
  27        4PX         0.00367   0.00074  -0.00019   0.00276  -0.00382
  28        4PY        -0.00652  -0.00090  -0.00328   0.00196  -0.00270
  29        4PZ        -0.00061   0.00024  -0.00281  -0.00033  -0.00329
  30        5PX         0.00027   0.00393   0.00937  -0.00220   0.01985
  31        5PY        -0.00911  -0.01046  -0.01524   0.00868  -0.03813
  32        5PZ         0.00043   0.00040   0.00171  -0.00029   0.00168
  33 3   H  1S          0.00008   0.00506  -0.04918  -0.02086  -0.02594
  34        2S          0.02366   0.00932  -0.03850   0.00524  -0.02245
  35        3S         -0.00362  -0.00144  -0.00789   0.00339   0.00514
  36        4PX         0.00403  -0.00026  -0.00057   0.00443  -0.00756
  37        4PY         0.00460   0.00093   0.00451  -0.00119   0.00548
  38        4PZ         0.00160  -0.00032   0.00040   0.00189  -0.00246
  39        5PX         0.00525   0.00085  -0.00101  -0.00093  -0.00570
  40        5PY        -0.00070  -0.00078   0.00100  -0.00141  -0.00317
  41        5PZ         0.00382  -0.00229   0.00647  -0.00290   0.00227
  42 4   H  1S          0.02793   0.00462   0.07701  -0.00731   0.11088
  43        2S          0.05325   0.01758   0.09099   0.01872   0.10785
  44        3S          0.00119   0.00334   0.00971   0.00407   0.01940
  45        4PX         0.00322  -0.00057  -0.00376   0.00470  -0.01130
  46        4PY         0.00370   0.00123   0.00020  -0.00167   0.00044
  47        4PZ        -0.00125   0.00025   0.00090  -0.00198   0.00420
  48        5PX         0.00369  -0.00146  -0.00547   0.00091  -0.01019
  49        5PY        -0.00292  -0.00096  -0.00902  -0.00252  -0.01395
  50        5PZ        -0.00015   0.00359   0.00917   0.00342   0.01434
  51 5   C  1S         -0.02862   0.07620  -0.04347   0.50066   0.04422
  52        2S          0.06133   0.06001   0.01232  -0.11899   0.11671
  53        3S          0.12609   0.08594   0.01141  -0.16523   0.03180
  54        4S          0.12952   0.04825  -0.03271  -0.05273  -0.15748
  55        5PX         0.00531   0.02328   0.07858  -0.12414   0.20650
  56        5PY        -0.03044  -0.03615  -0.05466  -0.12245  -0.23154
  57        5PZ        -0.01228   0.01856  -0.04974   0.02877  -0.11502
  58        6PX         0.04004   0.01062   0.02456  -0.05413   0.07614
  59        6PY         0.01267  -0.00068   0.04642   0.00809  -0.00893
  60        6PZ        -0.00497   0.00670  -0.01921   0.01229  -0.04512
  61        7PX         0.00948   0.00461  -0.00506  -0.00816  -0.02143
  62        7PY        -0.00181   0.00330  -0.00024   0.01012  -0.01749
  63        7PZ        -0.00021   0.00018  -0.00082   0.00055  -0.00181
  64        8D 0       -0.00603  -0.00469   0.00152  -0.00024   0.00316
  65        8D+1       -0.00043  -0.00097  -0.00214  -0.00136   0.00019
  66        8D-1       -0.00114  -0.00711   0.00076   0.00726   0.00204
  67        8D+2       -0.06285  -0.01843   0.00047  -0.00409   0.03562
  68        8D-2        0.00748   0.01459   0.00913   0.02173   0.02163
  69        9D 0       -0.00696  -0.00700   0.00083   0.00398   0.01081
  70        9D+1       -0.00096   0.00009  -0.00373   0.00092  -0.00558
  71        9D-1       -0.00165  -0.00276  -0.00500   0.00240  -0.00507
  72        9D+2       -0.00827  -0.00952  -0.00282  -0.00810   0.01791
  73        9D-2        0.00473  -0.00374  -0.00385  -0.02537  -0.00132
  74 6   O  1S         -0.14855   0.77195  -0.52606  -0.16497   0.09198
  75        2S          0.01951   0.09629   0.09391   0.32398   0.05164
  76        3S          0.00155   0.04421   0.13962   0.37382   0.03597
  77        4S         -0.02326  -0.00406   0.05418   0.08671   0.00923
  78        5PX         0.41713   0.08186   0.06283  -0.08326   0.01136
  79        5PY        -0.07631   0.02255  -0.06953  -0.03271   0.11290
  80        5PZ        -0.00031   0.06918  -0.03961  -0.02889  -0.10453
  81        6PX         0.26051   0.03695   0.04352  -0.05937  -0.00917
  82        6PY        -0.07154  -0.00570  -0.04190  -0.03322   0.05278
  83        6PZ        -0.00023   0.04545  -0.02676  -0.02054  -0.06781
  84        7PX         0.10549   0.01150   0.02142  -0.01316  -0.01846
  85        7PY        -0.03190   0.00106  -0.00711   0.00092   0.01851
  86        7PZ         0.00083   0.01687  -0.00737  -0.01154  -0.01782
  87        8D 0       -0.00160  -0.00114  -0.00011   0.00002  -0.00404
  88        8D+1       -0.00015   0.00101  -0.00110  -0.00011  -0.00251
  89        8D-1       -0.00024   0.00169  -0.00169   0.00008  -0.00428
  90        8D+2        0.00557   0.00015   0.00290  -0.00295   0.00022
  91        8D-2        0.00837   0.00360   0.00260  -0.00001   0.00804
  92        9D 0        0.00215   0.00261   0.00114   0.00634   0.00249
  93        9D+1       -0.00010   0.00087  -0.00074   0.00011  -0.00213
  94        9D-1       -0.00044   0.00115  -0.00227   0.00027  -0.00449
  95        9D+2        0.00297   0.00165   0.00309   0.00483   0.00642
  96        9D-2       -0.00285  -0.00282   0.00150  -0.00796   0.00168
  97 7   O  1S         -0.30145   0.44653   0.77898  -0.11883  -0.27755
  98        2S         -0.10911  -0.04063  -0.10922  -0.12305  -0.09035
  99        3S         -0.13084  -0.08391  -0.15695  -0.10188  -0.02943
 100        4S         -0.05556  -0.03066  -0.02659   0.00094   0.07887
 101        5PX         0.31490   0.15766  -0.00798  -0.04648  -0.20855
 102        5PY        -0.02201   0.03068   0.00197   0.07356   0.14348
 103        5PZ        -0.01573  -0.03864  -0.02084   0.08080  -0.06413
 104        6PX         0.18907   0.09767  -0.01123  -0.00884  -0.12372
 105        6PY        -0.00384   0.02720  -0.00922   0.02270   0.03389
 106        6PZ        -0.00949  -0.02653  -0.00971   0.05290  -0.03572
 107        7PX         0.06686   0.03660  -0.01250   0.01262  -0.05171
 108        7PY         0.00199   0.01389  -0.00374   0.00465   0.00102
 109        7PZ        -0.00265  -0.01289   0.00134   0.01926  -0.00300
 110        8D 0       -0.00089  -0.00026   0.00115   0.00330   0.00423
 111        8D+1       -0.00029  -0.00028  -0.00073   0.00107  -0.00169
 112        8D-1        0.00056   0.00036   0.00142  -0.00223   0.00369
 113        8D+2        0.00306   0.00250   0.00212   0.00162   0.00477
 114        8D-2       -0.00570  -0.00270   0.00110   0.00669   0.00659
 115        9D 0       -0.00040  -0.00070  -0.00372  -0.00217  -0.00975
 116        9D+1       -0.00014  -0.00012  -0.00021   0.00095  -0.00116
 117        9D-1        0.00039   0.00004   0.00106  -0.00162   0.00299
 118        9D+2       -0.00213   0.00034  -0.00397  -0.00326  -0.01114
 119        9D-2        0.00264  -0.00050  -0.00135   0.00166  -0.00977
                           6         7         8         9        10
     Eigenvalues --     2.00000   2.00000   2.00000   2.00000   2.00000
   1 1   C  1S         -0.00833   0.00871   0.00874   0.02229   0.00922
   2        2S         -0.07663  -0.03809   0.03455  -0.00232   0.01119
   3        3S         -0.00660  -0.08117  -0.05327  -0.03562  -0.12674
   4        4S         -0.06038  -0.00564   0.00454  -0.02489   0.05474
   5        5PX         0.02491   0.08786   0.18901   0.06048   0.05394
   6        5PY        -0.04470   0.00933   0.03407  -0.05706   0.24477
   7        5PZ        -0.21820   0.12455  -0.12508  -0.06188  -0.06583
   8        6PX        -0.02018   0.09169   0.06458   0.04131   0.16140
   9        6PY         0.01534  -0.00349   0.00074   0.00531  -0.01212
  10        6PZ        -0.01083   0.01010   0.00410  -0.02323   0.00055
  11        7PX         0.01847   0.01756   0.00275   0.01527   0.00015
  12        7PY         0.01484   0.00835   0.02542   0.00515   0.01737
  13        7PZ         0.01144  -0.00452   0.01297  -0.00897   0.00461
  14        8D 0       -0.00021   0.00381   0.00739  -0.00065   0.01089
  15        8D+1       -0.00253  -0.00085   0.00086  -0.00285  -0.00767
  16        8D-1       -0.00799   0.00401  -0.00561  -0.00021  -0.00334
  17        8D+2       -0.00409  -0.00186  -0.00850  -0.00244   0.00405
  18        8D-2       -0.00316   0.00932   0.00450   0.00139   0.00597
  19        9D 0        0.00797  -0.00139  -0.01086   0.00916  -0.03041
  20        9D+1        0.01332  -0.00898   0.00534   0.00873   0.00199
  21        9D-1        0.03237  -0.01737   0.01777   0.00996   0.01385
  22        9D+2        0.01485  -0.01698   0.00250   0.00150  -0.05197
  23        9D-2        0.00616   0.00266   0.01979  -0.00033   0.02313
  24 2   H  1S          0.00931  -0.02419   0.03063   0.05959  -0.19440
  25        2S          0.08105  -0.05542   0.01989   0.05033  -0.22111
  26        3S          0.01317  -0.01344   0.01555   0.00409  -0.00233
  27        4PX         0.00026   0.00208   0.00236  -0.00033   0.00495
  28        4PY        -0.00361  -0.00003   0.00467   0.00237  -0.00257
  29        4PZ        -0.00703   0.00412  -0.00361  -0.00272  -0.00211
  30        5PX        -0.00982   0.00138  -0.00274  -0.00316   0.01016
  31        5PY         0.01495  -0.00582   0.01555   0.00788  -0.02087
  32        5PZ         0.00409  -0.00193   0.00407  -0.00200   0.00124
  33 3   H  1S         -0.20449   0.10990   0.00698  -0.04440   0.06808
  34        2S         -0.18346   0.09815  -0.04536  -0.04074  -0.01221
  35        3S         -0.02807   0.01191  -0.02058   0.00207  -0.02059
  36        4PX         0.00679   0.00091   0.00690   0.00161  -0.00092
  37        4PY         0.00624  -0.00286  -0.00020   0.00034   0.00438
  38        4PZ         0.00543  -0.00093  -0.00501   0.00043  -0.00644
  39        5PX         0.00523   0.00270   0.00784  -0.00201  -0.00186
  40        5PY         0.01746  -0.00860   0.00075   0.00536  -0.00668
  41        5PZ         0.02336  -0.00845   0.01239   0.00215   0.01611
  42 4   H  1S          0.10971  -0.05981   0.18824   0.03654   0.18807
  43        2S          0.13713  -0.06179   0.15255   0.01029   0.13520
  44        3S          0.01473  -0.00444   0.01316  -0.00712   0.00641
  45        4PX        -0.00066   0.00500   0.00076   0.00277  -0.00265
  46        4PY        -0.00451   0.00338  -0.00606  -0.00353   0.00093
  47        4PZ        -0.00236  -0.00102   0.00714  -0.00012   0.00668
  48        5PX        -0.00368   0.00597  -0.00586   0.01122  -0.00453
  49        5PY        -0.00731   0.00461  -0.01402  -0.00014  -0.01646
  50        5PZ         0.01457  -0.01100   0.01397  -0.00083  -0.00181
  51 5   C  1S          0.63847   0.19127  -0.30571  -0.35229   0.02701
  52        2S         -0.03883   0.03371  -0.18446  -0.02022   0.14987
  53        3S         -0.04113   0.10758  -0.09355   0.03867   0.25277
  54        4S          0.07878   0.04569  -0.01066   0.04703  -0.00654
  55        5PX        -0.01799  -0.14440  -0.10852  -0.05759  -0.18102
  56        5PY         0.08687  -0.31784  -0.04016  -0.11039   0.15885
  57        5PZ        -0.10007   0.11344  -0.11167   0.02013   0.13773
  58        6PX        -0.06804   0.00926  -0.03291  -0.00686   0.11704
  59        6PY        -0.01021  -0.06480   0.01835  -0.02745   0.07866
  60        6PZ        -0.03772   0.04363  -0.04592   0.01343   0.05623
  61        7PX         0.01257  -0.00133   0.00046   0.00542  -0.00916
  62        7PY        -0.00697  -0.03128  -0.00960  -0.00707   0.00377
  63        7PZ        -0.00158   0.00171  -0.00217   0.00112   0.00222
  64        8D 0        0.00359  -0.00251   0.00486  -0.00046  -0.00842
  65        8D+1       -0.00612   0.00075  -0.00228  -0.00171  -0.00926
  66        8D-1        0.00808  -0.00946  -0.02142   0.04992   0.00483
  67        8D+2       -0.00406  -0.00510   0.00425  -0.00462   0.00280
  68        8D-2       -0.02568   0.01044  -0.01970   0.00038  -0.00953
  69        9D 0       -0.00031  -0.00100  -0.00313  -0.00634   0.00902
  70        9D+1       -0.00833   0.00579  -0.00773   0.00185   0.00170
  71        9D-1       -0.00988   0.00342  -0.01607   0.01635  -0.00302
  72        9D+2       -0.02288   0.01564   0.00415  -0.00189   0.07439
  73        9D-2        0.01090  -0.02317   0.01026  -0.01290   0.04063
  74 6   O  1S          0.15497  -0.04397   0.17625   0.15583   0.01807
  75        2S         -0.20952  -0.10894   0.00625  -0.01258   0.02764
  76        3S         -0.24346  -0.20594   0.01389  -0.05338   0.04172
  77        4S         -0.06546  -0.15074   0.00368  -0.05476   0.02861
  78        5PX         0.06836   0.26109   0.12831   0.11360  -0.03800
  79        5PY        -0.06420   0.28345  -0.14227   0.06878   0.03341
  80        5PZ        -0.12428   0.15613   0.07773  -0.35189   0.08984
  81        6PX         0.05452   0.13150   0.10146   0.06021  -0.00626
  82        6PY        -0.03102   0.10864  -0.09410   0.01995   0.00120
  83        6PZ        -0.08457   0.10283   0.05285  -0.23680   0.05262
  84        7PX         0.02134   0.03473   0.05798   0.01667   0.02832
  85        7PY        -0.01827   0.00738  -0.04021  -0.00511  -0.01349
  86        7PZ        -0.02812   0.03276   0.03121  -0.10067   0.00646
  87        8D 0        0.00226  -0.00833   0.00089  -0.00275  -0.00145
  88        8D+1       -0.00285   0.00316  -0.00031  -0.00423   0.00219
  89        8D-1       -0.00417   0.00518  -0.00075  -0.00611   0.00471
  90        8D+2        0.00330  -0.00523   0.00345  -0.00122  -0.00550
  91        8D-2       -0.00353   0.01228  -0.00065   0.00436  -0.00075
  92        9D 0       -0.00368   0.00932   0.00233   0.00260   0.00392
  93        9D+1       -0.00179   0.00252  -0.00029  -0.00290   0.00272
  94        9D-1       -0.00537   0.00518  -0.00274  -0.00373   0.00335
  95        9D+2       -0.00024   0.01040   0.00517   0.00376  -0.00264
  96        9D-2        0.00149  -0.01046  -0.00177  -0.00272  -0.00316
  97 7   O  1S          0.05430   0.15071  -0.02131   0.06710  -0.02245
  98        2S          0.06276   0.00972  -0.05618  -0.02341  -0.04818
  99        3S          0.04810   0.04435  -0.03672  -0.01761  -0.10987
 100        4S         -0.01222   0.06840   0.01149   0.01048  -0.09147
 101        5PX        -0.04660  -0.21626  -0.25204  -0.06187  -0.08322
 102        5PY        -0.05756   0.10024  -0.06869   0.02163  -0.36910
 103        5PZ         0.01486   0.00279  -0.23443   0.40551   0.16541
 104        6PX        -0.03727  -0.11810  -0.16263  -0.03018  -0.09682
 105        6PY        -0.02031   0.03471  -0.05983   0.00292  -0.17595
 106        6PZ         0.01932  -0.00567  -0.14868   0.27094   0.10673
 107        7PX        -0.01974  -0.02062  -0.06123  -0.00281  -0.05250
 108        7PY        -0.01196  -0.00059  -0.03881  -0.00447  -0.03908
 109        7PZ         0.01908  -0.01419  -0.05025   0.11118   0.03133
 110        8D 0       -0.00011   0.00480   0.00248   0.00160  -0.00751
 111        8D+1       -0.00093   0.00106  -0.00355   0.00442   0.00267
 112        8D-1        0.00171  -0.00243   0.00696  -0.00849  -0.00633
 113        8D+2       -0.00168  -0.00115  -0.00314  -0.00040  -0.01323
 114        8D-2       -0.00009   0.01083   0.00819   0.00371  -0.00433
 115        9D 0        0.00356  -0.00313   0.00145  -0.00122   0.00818
 116        9D+1        0.00023   0.00054  -0.00227   0.00360   0.00302
 117        9D-1        0.00132  -0.00216   0.00482  -0.00540  -0.00531
 118        9D+2        0.00452  -0.00983  -0.00497  -0.00381   0.00071
 119        9D-2        0.00385   0.00049   0.00452  -0.00076   0.01172
                          11        12        13        14        15
     Eigenvalues --     2.00000   2.00000   2.00000   2.00000   2.00000
   1 1   C  1S         -0.02506  -0.03104   0.04238  -0.03105   0.06661
   2        2S          0.05681   0.23111   0.08761   0.23643  -0.02429
   3        3S          0.08974   0.03869  -0.13596   0.11800  -0.06115
   4        4S          0.05565   0.01345   0.02403  -0.00235   0.02831
   5        5PX        -0.04953   0.11165   0.15981  -0.00278   0.11744
   6        5PY         0.12840   0.05656   0.04465  -0.15609   0.21421
   7        5PZ         0.10116   0.17889  -0.04669  -0.18774  -0.10043
   8        6PX        -0.11293   0.01362   0.13507  -0.07145   0.03526
   9        6PY        -0.00620  -0.00970   0.01372   0.01221  -0.03728
  10        6PZ         0.00137  -0.00451  -0.00469   0.00520  -0.00044
  11        7PX        -0.03602   0.00062   0.01359  -0.00475  -0.00460
  12        7PY         0.02319   0.00145  -0.00565  -0.00443  -0.03093
  13        7PZ        -0.00797  -0.01596   0.00154   0.01682   0.00728
  14        8D 0        0.00385   0.00410   0.00162  -0.00722   0.00917
  15        8D+1       -0.00217   0.00996   0.00349  -0.01297  -0.00549
  16        8D-1        0.00380   0.00838  -0.00123  -0.00893  -0.00452
  17        8D+2        0.00303  -0.00279   0.00053   0.00050  -0.00525
  18        8D-2        0.00368   0.00090   0.00264  -0.00478   0.00677
  19        9D 0       -0.02651  -0.01336  -0.01546   0.02096  -0.04058
  20        9D+1       -0.00574  -0.00614   0.00411   0.00586   0.00431
  21        9D-1       -0.01317  -0.03036   0.00515   0.03280   0.01779
  22        9D+2        0.01229   0.01065  -0.01797   0.03563  -0.01706
  23        9D-2        0.02364  -0.00029  -0.00773  -0.01140  -0.01585
  24 2   H  1S         -0.10470   0.09712   0.05259   0.25148  -0.15488
  25        2S         -0.07783   0.00348   0.00128   0.18977  -0.22560
  26        3S          0.00562   0.00545  -0.00386   0.01161  -0.03494
  27        4PX        -0.00159   0.00062   0.00203  -0.00675   0.01014
  28        4PY        -0.00243   0.01426   0.00869   0.01650  -0.00272
  29        4PZ         0.00307   0.00542  -0.00153  -0.00550  -0.00316
  30        5PX         0.00134   0.00363  -0.00475  -0.00922   0.02100
  31        5PY         0.00171   0.00408   0.00734   0.02821  -0.04391
  32        5PZ        -0.00248  -0.00472   0.00067   0.00512   0.00205
  33 3   H  1S          0.14420   0.31245   0.08526  -0.11455   0.03261
  34        2S          0.14446   0.25295   0.02111  -0.21532   0.06164
  35        3S          0.01799   0.03008   0.00893  -0.03886   0.01051
  36        4PX        -0.00463  -0.00580   0.00253   0.00115   0.00096
  37        4PY        -0.00124  -0.01095  -0.00247  -0.00464   0.00609
  38        4PZ        -0.00610  -0.01547  -0.00752  -0.00707  -0.00520
  39        5PX        -0.00973  -0.01083   0.00820   0.01267  -0.01203
  40        5PY        -0.01433  -0.02180  -0.00397   0.01768  -0.01359
  41        5PZ        -0.01436  -0.03561   0.00232   0.01147  -0.01225
  42 4   H  1S          0.00699   0.02245   0.13935   0.19696   0.19525
  43        2S          0.00611  -0.08847   0.06108   0.15811   0.24807
  44        3S         -0.00177  -0.03181   0.00966   0.03048   0.04206
  45        4PX        -0.00013   0.00096   0.00062  -0.00564  -0.00253
  46        4PY         0.00346  -0.00262  -0.00492  -0.01365   0.00108
  47        4PZ         0.00426   0.01360   0.00858   0.00855   0.00622
  48        5PX        -0.00151   0.00295   0.00633  -0.00116  -0.01795
  49        5PY        -0.00330   0.00173  -0.00821  -0.00787  -0.02714
  50        5PZ        -0.00462  -0.00318   0.00402   0.02976   0.03274
  51 5   C  1S          0.19133   0.26070   0.00456   0.01363   0.02173
  52        2S         -0.14330  -0.02973   0.11482   0.05160  -0.20373
  53        3S         -0.25358   0.01224   0.07162  -0.01759  -0.13830
  54        4S         -0.15394   0.01640  -0.05804   0.02197  -0.09014
  55        5PX         0.19759   0.02131  -0.15144   0.10954  -0.01241
  56        5PY         0.05888   0.04601  -0.02020  -0.03457  -0.06044
  57        5PZ         0.12658  -0.11115  -0.11931   0.17788   0.05916
  58        6PX        -0.01370  -0.01783   0.08541  -0.02672  -0.01636
  59        6PY         0.03338   0.02402  -0.02813  -0.02971  -0.00526
  60        6PZ         0.05091  -0.04484  -0.04739   0.07187   0.02452
  61        7PX        -0.01173   0.00314  -0.01247   0.00940  -0.01868
  62        7PY        -0.01323   0.00629  -0.00370   0.00761  -0.00716
  63        7PZ         0.00218  -0.00143  -0.00183   0.00256   0.00085
  64        8D 0        0.00630   0.00158  -0.01841  -0.00267   0.00806
  65        8D+1       -0.00015   0.01447   0.00306  -0.01780  -0.00769
  66        8D-1        0.00901   0.01073   0.00157  -0.00881   0.00015
  67        8D+2        0.00022   0.01521  -0.03586   0.00728   0.00402
  68        8D-2       -0.02893   0.00364   0.00644  -0.00196   0.04508
  69        9D 0        0.00788  -0.00645   0.00286  -0.00935   0.00206
  70        9D+1        0.00660   0.00330  -0.00415  -0.00183  -0.00152
  71        9D-1        0.00924   0.01596  -0.00178  -0.01595  -0.00666
  72        9D+2       -0.02029   0.00618   0.04492  -0.01656  -0.00057
  73        9D-2        0.03157   0.00578  -0.00112  -0.02021   0.00234
  74 6   O  1S          0.03585   0.03213  -0.15304  -0.06587   0.00491
  75        2S          0.02029  -0.10596   0.15692  -0.02134  -0.05892
  76        3S          0.09192  -0.11255   0.16451  -0.03718  -0.04166
  77        4S          0.09787  -0.01367   0.00908  -0.03126   0.03165
  78        5PX         0.14760  -0.04220   0.10061   0.02653  -0.18662
  79        5PY        -0.38109   0.00019   0.09958   0.00802   0.12431
  80        5PZ         0.03111  -0.19614  -0.11037   0.24053   0.06061
  81        6PX         0.13220  -0.02023   0.04931   0.00621  -0.12312
  82        6PY        -0.19418   0.00351   0.03218   0.00668   0.08889
  83        6PZ         0.01833  -0.12164  -0.07008   0.14840   0.03536
  84        7PX         0.06720  -0.00334   0.02214  -0.01690  -0.04026
  85        7PY        -0.05168   0.00460   0.00240  -0.00066   0.06054
  86        7PZ        -0.00379  -0.03586  -0.01743   0.03988   0.00683
  87        8D 0        0.00568   0.00132  -0.00405  -0.00062   0.00183
  88        8D+1        0.00172  -0.00302  -0.00251   0.00414   0.00106
  89        8D-1        0.00315  -0.00629  -0.00456   0.00856   0.00253
  90        8D+2        0.01371   0.00106  -0.00523   0.00168  -0.00218
  91        8D-2       -0.00312  -0.00294   0.00569   0.00171  -0.00447
  92        9D 0       -0.00560   0.00130   0.00640  -0.00149   0.00442
  93        9D+1        0.00156  -0.00373  -0.00238   0.00499   0.00158
  94        9D-1        0.00396  -0.00291  -0.00417   0.00477   0.00104
  95        9D+2        0.00171  -0.00040  -0.00172   0.00077  -0.00300
  96        9D-2        0.00762   0.00065  -0.00818   0.00337  -0.00551
  97 7   O  1S         -0.04720   0.11956  -0.08349  -0.02834   0.00719
  98        2S          0.16366  -0.17205   0.32446  -0.04360  -0.00551
  99        3S          0.23149  -0.21405   0.37027  -0.04955   0.04451
 100        4S          0.10830  -0.06944   0.09260  -0.01056   0.06283
 101        5PX        -0.17351   0.05413   0.08887   0.05891   0.17563
 102        5PY         0.09028  -0.05336   0.03634   0.04015   0.32119
 103        5PZ         0.15775  -0.04529  -0.08123   0.11802   0.06958
 104        6PX        -0.12326   0.03153   0.05289   0.04846   0.13843
 105        6PY         0.02175  -0.02374   0.04427   0.01931   0.17186
 106        6PZ         0.09773  -0.03049  -0.04835   0.07659   0.04673
 107        7PX        -0.06467   0.00595   0.03882   0.01689   0.07537
 108        7PY        -0.02696  -0.00197   0.01235   0.00343   0.06128
 109        7PZ         0.02771  -0.00280  -0.00816   0.01546   0.01428
 110        8D 0        0.00365  -0.00060  -0.00239   0.00045   0.00460
 111        8D+1        0.00279  -0.00098  -0.00181   0.00223   0.00101
 112        8D-1       -0.00580   0.00348   0.00418  -0.00639  -0.00276
 113        8D+2        0.00419   0.00096  -0.00410   0.00297   0.01010
 114        8D-2        0.00293  -0.00058  -0.00355  -0.00127   0.00282
 115        9D 0       -0.00112   0.00130   0.00578  -0.00163  -0.00350
 116        9D+1        0.00197  -0.00244  -0.00161   0.00372   0.00167
 117        9D-1       -0.00437   0.00367   0.00348  -0.00605  -0.00252
 118        9D+2       -0.00276   0.00290   0.00023   0.00074   0.00238
 119        9D-2        0.00016  -0.00039   0.00651  -0.00603  -0.00294
                          16        17        18        19        20
     Eigenvalues --     2.00000   0.00000   0.00000   0.00000   0.00000
   1 1   C  1S          1.00450  -0.00765   0.03946  -0.03937   0.05930
   2        2S         -0.01383  -0.08584   0.22567  -0.72365   0.67433
   3        3S         -0.06628   0.59630  -0.43435   7.36713  -0.80289
   4        4S         -0.03373   5.28270  -1.32017   8.37940  -1.87958
   5        5PX        -0.03635   0.03927  -0.10972  -0.16359  -0.24499
   6        5PY        -0.00419  -0.01998  -0.19633  -0.06693  -0.05663
   7        5PZ         0.00176   0.06056  -0.02722   0.00156   0.06234
   8        6PX        -0.00531  -1.39000  -0.58762  17.04632   0.09765
   9        6PY        -0.00075   2.11318   3.36955   1.39381  -1.21150
  10        6PZ         0.00021  -3.43159  -1.60050  -0.51758   0.18284
  11        7PX         0.00344  -1.94147   0.21897   1.97269   0.59957
  12        7PY         0.00213   5.45122  -0.29632   1.10796  -0.25524
  13        7PZ         0.00002  -0.11387  -1.65387   0.36368   0.90794
  14        8D 0       -0.00013   0.22457  -0.12629   0.16747  -0.10731
  15        8D+1        0.00027  -0.07535  -0.06535   0.01392   0.00423
  16        8D-1        0.00007  -0.20080  -0.35847   0.03946  -0.02390
  17        8D+2        0.00006   0.06171   0.11068  -0.23648  -0.02469
  18        8D-2        0.00010   0.12187   0.10348   0.08144  -0.22924
  19        9D 0        0.00364  -1.20071   1.66566   2.54131   1.51229
  20        9D+1       -0.00009  -0.85517   0.07052  -0.32465   0.14487
  21        9D-1       -0.00039   1.17522   2.86832  -0.47931   1.04637
  22        9D+2       -0.00304  -0.21228   0.74309  -3.98860   0.19212
  23        9D-2        0.00209  -0.91301   2.08337   1.63713   0.82423
  24 2   H  1S         -0.03304   0.20584   0.30911  -0.29294   0.30473
  25        2S          0.00541  -0.82283  10.76522  -5.92452  -0.75980
  26        3S          0.00210   6.59460   0.04796  -0.43674  -1.74183
  27        4PX         0.00031  -0.10663   0.10030  -0.01580  -0.01389
  28        4PY        -0.00535   0.17520  -0.08636  -0.27458  -0.08496
  29        4PZ         0.00004   0.13198   0.07846   0.02851   0.06097
  30        5PX        -0.00226  -0.22311  -0.68687   0.78569   1.16463
  31        5PY         0.00237  -0.78596   3.76814  -1.02679  -0.60837
  32        5PZ         0.00002   0.90300   2.14143  -0.37904   0.31537
  33 3   H  1S         -0.03599   0.05936  -0.18935  -0.43579  -0.48234
  34        2S          0.00328   4.57131  -5.79749 -11.67576   1.49936
  35        3S          0.00040  -3.43662   1.51017  -2.98755   0.41948
  36        4PX         0.00068   0.10848  -0.06949  -0.09534  -0.01117
  37        4PY         0.00259  -0.06375  -0.19205   0.15264  -0.04573
  38        4PZ         0.00466   0.07908  -0.21272   0.33927   0.07355
  39        5PX        -0.00321  -0.44372   0.57269   1.12307  -0.52646
  40        5PY        -0.00082  -2.64891   0.59426   1.55038  -0.36666
  41        5PZ        -0.00162  -1.32442   1.56888   2.41782  -1.71589
  42 4   H  1S         -0.03924  -0.18761  -0.13750  -0.45641   0.41028
  43        2S         -0.00047  -3.98647  -3.77524 -15.18212   0.27669
  44        3S         -0.00018  -2.69981  -1.48598  -2.09885   1.59131
  45        4PX         0.00069   0.20161   0.02108  -0.10032  -0.09017
  46        4PY         0.00275   0.18546   0.17445   0.14530   0.06289
  47        4PZ        -0.00462  -0.20090  -0.14725  -0.24095   0.05048
  48        5PX        -0.00332   0.40956   0.70173   1.41333  -0.09210
  49        5PY        -0.00058  -0.14117   2.16094   1.92626   0.49314
  50        5PZ         0.00132  -1.38668  -0.26466  -3.71016  -0.21996
  51 5   C  1S          0.04297   0.01297  -0.06689  -0.17274  -0.05366
  52        2S          0.00569   0.27697  -0.39588  -1.09804   0.04377
  53        3S          0.02445  -2.03692   3.13325  20.20879  -2.07784
  54        4S          0.02226  -5.27151   2.98736   5.84455  -0.87359
  55        5PX         0.01147   0.08431  -0.04845  -0.24329   0.30316
  56        5PY        -0.00993  -0.01114   0.12754   0.07626  -0.22349
  57        5PZ        -0.00524   0.05450  -0.05403   0.02939   0.11516
  58        6PX         0.00722  -0.64010  -1.48722  11.61276   0.08239
  59        6PY         0.00179  -2.88447   1.96850   1.34280  -2.20241
  60        6PZ        -0.00219  -0.47095   0.57390  -0.32361   0.71442
  61        7PX         0.00401  -0.16776   0.21989   0.92944  -0.07178
  62        7PY        -0.00116  -0.60636   1.36145   0.41478  -1.13713
  63        7PZ        -0.00010   0.21123   0.59579  -0.00594   0.18848
  64        8D 0        0.00097   0.08049  -0.00287  -0.28532   0.15169
  65        8D+1        0.00029   0.03138  -0.07190   0.02796  -0.06993
  66        8D-1       -0.00073  -0.11742  -0.25571   0.02448   0.09539
  67        8D+2       -0.00143  -0.07438  -0.08695  -0.03549   0.09662
  68        8D-2       -0.00073   0.17120  -0.04832   0.04454   0.13763
  69        9D 0       -0.00077   0.38488  -0.36720  -1.42486  -0.74403
  70        9D+1       -0.00012  -0.32895   0.29509  -0.23911  -0.57853
  71        9D-1       -0.00016  -1.42694  -2.26048   0.25606  -0.38329
  72        9D+2       -0.00404  -0.31786  -0.97043   1.72912  -1.55521
  73        9D-2       -0.00051  -0.61705   2.46933   1.12406   0.70017
  74 6   O  1S          0.04712   0.01716   0.02066   0.02095   0.01668
  75        2S          0.01035   0.14612   0.35893   0.08914   0.33857
  76        3S          0.00477  -0.85776  -1.90186  -0.96232  -1.83315
  77        4S          0.00054   0.46738  -1.70615  -0.72845  -0.73455
  78        5PX         0.01424  -0.03604  -0.07414  -0.09509   0.03365
  79        5PY        -0.01151   0.00005  -0.13933  -0.06076  -0.08355
  80        5PZ         0.00080   0.09448   0.17177  -0.02578   0.13442
  81        6PX         0.00765  -0.51594   0.35202  -0.39994  -0.41798
  82        6PY        -0.00829  -0.05205  -0.30115  -0.53110   0.26674
  83        6PZ         0.00079  -0.66635  -1.18069   0.13746  -0.47589
  84        7PX         0.00308  -0.06298  -0.24487   0.04980   0.41411
  85        7PY        -0.00273   0.13619  -0.64403  -0.22481  -0.17800
  86        7PZ         0.00090  -0.42674  -0.57954  -0.00887  -0.60045
  87        8D 0        0.00006   0.13675  -0.12100   0.05319   0.09770
  88        8D+1       -0.00003  -0.01968   0.05713  -0.03350  -0.06680
  89        8D-1       -0.00010  -0.02001   0.06754  -0.00578   0.11994
  90        8D+2        0.00039   0.03845  -0.10133  -0.05909   0.02010
  91        8D-2        0.00036  -0.09071  -0.05496   0.02415  -0.00905
  92        9D 0       -0.00051  -0.04494  -0.16882   0.20347  -0.20282
  93        9D+1       -0.00006  -0.20004  -0.36989   0.06699   0.00641
  94        9D-1       -0.00009  -0.24921  -0.33467   0.01957  -0.40630
  95        9D+2        0.00080  -0.16469   0.01482   0.14893   0.00538
  96        9D-2        0.00010  -0.10877   0.23773  -0.33992   0.00404
  97 7   O  1S          0.02468  -0.03521   0.02979   0.02525  -0.01163
  98        2S         -0.01903  -0.36275   0.27048   0.29643  -0.25982
  99        3S         -0.02504   1.84298  -1.27101  -1.35135   0.65633
 100        4S         -0.00599  -0.73891  -1.83669  -1.27142   5.14358
 101        5PX        -0.01531  -0.06391   0.08580   0.07018  -0.10365
 102        5PY        -0.00692   0.02561  -0.04956  -0.01815   0.17657
 103        5PZ        -0.01031  -0.06059  -0.21018   0.00285   0.14741
 104        6PX        -0.01150   0.23245  -1.01668  -1.26899   0.42454
 105        6PY        -0.00602  -0.40196   0.78822   0.89893  -1.68013
 106        6PZ        -0.00672   0.71828   1.19168  -0.13340  -0.37314
 107        7PX        -0.00627  -1.18990  -0.23883  -0.35034   0.47730
 108        7PY        -0.00246  -0.22292  -0.44318  -0.41564  -1.20257
 109        7PZ        -0.00229   0.21068   0.35595  -0.08499  -0.37794
 110        8D 0        0.00031  -0.03692  -0.03952  -0.00914  -0.04051
 111        8D+1       -0.00015  -0.00255  -0.01914   0.00351   0.04799
 112        8D-1        0.00032   0.04949   0.00252  -0.02750  -0.13733
 113        8D+2        0.00003   0.16761  -0.06515   0.02089  -0.04804
 114        8D-2        0.00048  -0.02056  -0.04689  -0.06298  -0.03171
 115        9D 0       -0.00093   0.15706  -0.01908   0.11931  -0.34597
 116        9D+1       -0.00014   0.14937   0.20912  -0.01887  -0.13181
 117        9D-1        0.00025  -0.22783  -0.34805   0.05078   0.43410
 118        9D+2       -0.00060  -0.16245   0.06067   0.09282  -0.22869
 119        9D-2        0.00006   0.07861   0.12657   0.38889  -0.31643
                          21        22        23        24        25
     Eigenvalues --     0.00000   0.00000   0.00000   0.00000   0.00000
   1 1   C  1S         -0.02430  -0.01180   0.03423   0.00015  -0.06263
   2        2S         -0.06918  -0.10187   0.29289   0.27496  -0.38255
   3        3S         -0.88471  -0.93105  -2.08608  -2.39496   1.77478
   4        4S         -1.91979  -4.17704  -2.45681  -1.30825  -4.03948
   5        5PX        -0.12380  -0.01636   0.01253  -0.12537   0.03319
   6        5PY        -0.02779  -0.11914   0.02711   0.07905   0.01632
   7        5PZ         0.13385  -0.03377  -0.00472  -0.15855   0.12075
   8        6PX         1.36163  -6.94246   0.03673   0.67306   0.77592
   9        6PY         1.79565   5.30989  -0.50666  -2.91332  -2.76091
  10        6PZ        -1.19708   1.79054  -1.52907  -0.73866  -1.77691
  11        7PX         0.57569  -0.10901   0.03129   1.43295   1.07285
  12        7PY         2.04228   1.14396  -1.98939   0.86486  -1.79093
  13        7PZ        -1.22435   0.90154   2.45691   0.09829   1.08697
  14        8D 0        0.02881  -0.00794   0.07995  -0.21783  -0.09285
  15        8D+1        0.06958   0.10482  -0.02089  -0.08808   0.05321
  16        8D-1       -0.08758   0.21536   0.05722   0.01614  -0.33964
  17        8D+2       -0.02810   0.19937   0.02368  -0.14768  -0.01009
  18        8D-2        0.02646  -0.10766   0.02118  -0.04577  -0.07502
  19        9D 0       -0.52768  -0.41819   0.08088   0.31464  -0.47365
  20        9D+1       -0.07459  -0.49234  -0.12746  -0.75907  -1.91121
  21        9D-1        0.27974  -1.01652   0.16482  -0.30471   1.38167
  22        9D+2       -0.47391   2.06801  -0.11813  -0.11180  -0.49720
  23        9D-2        1.83264   0.71313  -0.27119   0.30733  -0.90754
  24 2   H  1S         -0.41873   0.45559   0.04475  -0.54406  -0.52032
  25        2S          6.77338  13.33415  -0.01626  -0.53505  -5.20572
  26        3S          1.87475   1.39503  -1.72246   1.46170  -1.17962
  27        4PX         0.08580   0.31543   0.14345   0.02892   0.00664
  28        4PY         0.08897  -0.07189   0.06761  -0.10173  -0.10092
  29        4PZ        -0.05810  -0.02824   0.11109   0.05517   0.09756
  30        5PX        -0.79275  -1.49513  -0.12016  -0.34901   0.38556
  31        5PY         2.52464   4.04567  -0.07166  -0.03709  -1.64408
  32        5PZ         0.32111  -0.86361  -0.33858  -0.41350   1.42585
  33 3   H  1S         -0.22958  -0.10723  -0.15178   0.08510   0.45073
  34        2S         -1.92071  -1.39207   3.90822   4.37126   2.68601
  35        3S          0.43303  -0.86016  -2.00478  -0.46756  -1.15075
  36        4PX         0.13172   0.17760  -0.07261   0.07324  -0.10075
  37        4PY         0.04004   0.00659  -0.07532  -0.02644  -0.13162
  38        4PZ         0.23434   0.08721   0.02100  -0.04022  -0.12983
  39        5PX         0.08501   0.67564  -0.31230  -0.88057   1.09736
  40        5PY        -0.17621   0.89399  -0.41575  -0.33621  -0.65694
  41        5PZ         0.77389   0.15970  -1.33086  -1.50173  -0.18302
  42 4   H  1S         -0.04798   0.10029   0.01266   0.26487  -0.44406
  43        2S         -4.59287  -1.41164  -0.12130  -2.69384   1.82438
  44        3S         -2.25055   0.42668   5.23376  -1.73757   2.65753
  45        4PX        -0.02565   0.06694   0.10549  -0.06532  -0.05402
  46        4PY        -0.12956  -0.14230  -0.08582   0.05954   0.09554
  47        4PZ        -0.03268   0.09372   0.13422   0.03203   0.03228
  48        5PX         0.02505   0.33705   0.12180   0.50130  -1.13184
  49        5PY         0.72898   0.24205   0.48804   0.66474   0.61293
  50        5PZ        -1.91769  -0.73731  -0.52505  -0.60479   0.39389
  51 5   C  1S          0.16209   0.06275   0.00229   0.07627   0.07483
  52        2S          1.72921   0.22695   0.55212   0.41684   0.52341
  53        3S         -0.11864 -13.19200  -1.09841  -1.89180  -1.95256
  54        4S          0.76369   0.15420  -2.85984   3.15294   2.07764
  55        5PX        -0.20159   0.30195   0.08505   0.07936  -0.09396
  56        5PY         0.14222   0.01985   0.12327   0.14958  -0.04269
  57        5PZ        -0.11331   0.11270  -0.16315   0.09068   0.05239
  58        6PX         1.44405  -2.99602   0.51460   0.89203   0.84425
  59        6PY         1.99581  -0.90498   0.86816   2.85490  -0.60535
  60        6PZ        -0.12313  -0.52105  -1.36467  -0.84055   0.30138
  61        7PX         1.34940   0.77324  -1.11322  -0.77906   0.18843
  62        7PY        -0.80083  -0.51381   0.76088   0.41749   0.25777
  63        7PZ         0.48984  -0.29089   0.15894  -0.86730  -0.44404
  64        8D 0       -0.13226   0.56310  -0.02306   0.09794   0.03200
  65        8D+1        0.01800  -0.00470   0.15088   0.06895  -0.21987
  66        8D-1        0.17365   0.06089  -0.10035  -0.07781  -0.08935
  67        8D+2        0.03047   0.17321   0.03302   0.28365   0.25841
  68        8D-2       -0.03827   0.06785  -0.06292  -0.15472   0.08044
  69        9D 0        1.20627   1.11319   0.32046   0.54608   0.66553
  70        9D+1        0.75689  -0.77281   0.71433  -1.24320  -0.38676
  71        9D-1        1.07534   0.85200  -0.85127  -0.90633  -0.10331
  72        9D+2        1.88721   0.31042  -0.04719   1.65589   1.43275
  73        9D-2        2.25564   1.03017  -0.54824   0.90114  -0.45334
  74 6   O  1S         -0.01539  -0.04013  -0.00381  -0.05934  -0.01529
  75        2S         -0.23902  -0.48313  -0.18632  -0.81702  -0.14945
  76        3S          1.39039   2.05396   0.88253   3.45193   1.20032
  77        4S         -0.27855  -0.11716   2.46567   0.13504   1.39407
  78        5PX        -0.06034  -0.01579  -0.08101  -0.19693   0.05624
  79        5PY         0.10132  -0.02961  -0.05480   0.07518   0.01528
  80        5PZ        -0.21363  -0.03123  -0.20705   0.24228   0.28738
  81        6PX         0.89303   1.06576   0.08688   1.44113   0.50246
  82        6PY        -0.53215   1.18363   0.48705   0.43961  -0.00668
  83        6PZ         1.07642   0.24912   0.29601  -0.95220  -0.56861
  84        7PX        -0.20422  -0.20898   0.68216   0.93780   0.29595
  85        7PY        -0.54918  -0.12668   0.17617  -0.51469   0.32977
  86        7PZ         0.33938   0.05925  -0.24824   0.07132  -0.33419
  87        8D 0       -0.06530  -0.04762   0.05868  -0.17346   0.06346
  88        8D+1       -0.01353  -0.05793   0.02065  -0.03183   0.09531
  89        8D-1       -0.07029   0.04055  -0.12151   0.15581   0.09772
  90        8D+2       -0.00599  -0.08682  -0.03580  -0.18004  -0.08612
  91        8D-2        0.03614  -0.01679  -0.05210   0.18489   0.05443
  92        9D 0        0.12095  -0.18178  -0.00236   0.02285  -0.01630
  93        9D+1        0.26914   0.20874  -0.19080  -0.01556  -0.12209
  94        9D-1        0.53104  -0.00865   0.42252  -0.41917  -0.42243
  95        9D+2        0.45706  -0.41544   0.02276   0.32822   0.08291
  96        9D-2       -0.24122   0.29329  -0.01053   0.20214  -0.06811
  97 7   O  1S         -0.01304  -0.06446   0.01702  -0.02221  -0.02729
  98        2S          0.20828  -0.57725   0.16947  -0.10746  -0.23764
  99        3S          1.05036   3.60928  -0.67070   1.00954   1.70484
 100        4S          0.97567   2.64717   1.22234  -1.18316   0.41876
 101        5PX         0.01783  -0.00902  -0.01100   0.07846  -0.01435
 102        5PY        -0.22295   0.14363   0.08495  -0.14661  -0.08664
 103        5PZ         0.04343   0.09604  -0.33837  -0.11164   0.24579
 104        6PX        -0.43188   0.75286  -0.16726   0.03881   0.65858
 105        6PY         0.78498  -1.57785   0.06671   0.25098  -0.07956
 106        6PZ        -0.43027  -0.58444   1.10394   0.33398  -0.53107
 107        7PX        -0.87915   0.03750   0.93854   0.22875   0.72928
 108        7PY         0.11337  -0.66061  -0.22122   0.09541   0.51121
 109        7PZ        -0.33467  -0.22369   0.59647   0.37838   0.30925
 110        8D 0        0.05371  -0.14973   0.08579  -0.04981   0.00249
 111        8D+1        0.12099   0.00015   0.03094  -0.05011  -0.07705
 112        8D-1        0.05691  -0.08347   0.16303  -0.16451  -0.04231
 113        8D+2       -0.03837   0.11459   0.05125  -0.09540  -0.02764
 114        8D-2       -0.07609  -0.16125   0.01280  -0.05072   0.00707
 115        9D 0        0.18554  -0.22142  -0.15281  -0.03107   0.01339
 116        9D+1       -0.51630  -0.01301   0.04923   0.48514   0.02592
 117        9D-1        0.15556   0.25709  -0.76836  -0.13656   0.32085
 118        9D+2        0.29226  -0.08790   0.07520   0.10547   0.29628
 119        9D-2        0.65239  -0.29721   0.08567   0.12519  -0.04431
                          26        27        28        29        30
     Eigenvalues --     0.00000   0.00000   0.00000   0.00000   0.00000
   1 1   C  1S         -0.01144  -0.03073   0.03688  -0.01580  -0.06396
   2        2S          0.48556  -0.24361   0.17057  -0.24920  -0.65366
   3        3S          3.35025   1.85078   0.11797   1.01231   5.19147
   4        4S          9.53126   8.78463   1.37578   6.79485  -1.24401
   5        5PX        -0.28763   0.13870   0.06900  -0.06913  -0.09840
   6        5PY         0.02946  -0.09722   0.12246  -0.01658   0.32996
   7        5PZ         0.09504  -0.09508   0.30044   0.15288   0.19165
   8        6PX         0.41503  -1.96010  -2.23095  -0.73678  -3.41976
   9        6PY         0.57984   0.63355  -0.36345  -3.43842  -2.78073
  10        6PZ        -0.89628   1.47175  -0.09641  -3.50909  -3.90159
  11        7PX        -0.40123  -3.17940  -1.10880  -1.64208   1.11112
  12        7PY        -0.55848  -1.33067  -0.14305   0.13510  -1.96043
  13        7PZ        -1.40100   2.69991  -0.24377  -1.30812  -1.71356
  14        8D 0        0.23541  -0.07862  -0.03747  -0.19767   0.07692
  15        8D+1        0.01341  -0.15577   0.39305   0.10626   0.01841
  16        8D-1       -0.17827   0.02930   0.42848   0.00148   0.03761
  17        8D+2       -0.05869  -0.13454   0.01550  -0.09776  -0.11756
  18        8D-2        0.08413   0.02866   0.09291  -0.05952  -0.08241
  19        9D 0        0.25320   0.32099   0.12455   0.59453  -0.03790
  20        9D+1       -0.75945   1.03075  -1.31094  -0.46903  -1.25338
  21        9D-1       -0.38280  -0.42646   0.00072  -0.69819  -0.18983
  22        9D+2       -0.01190   0.68168   0.29116   0.37810   1.13483
  23        9D-2        0.63517   2.26451  -0.48600   0.72848  -0.83822
  24 2   H  1S          0.04598  -0.15716   0.19847  -0.16617  -0.36309
  25        2S         -0.77206   7.03686  -0.37902  -2.66923  -3.52037
  26        3S         -0.99269  -1.00251   0.25927   1.01305  -2.61443
  27        4PX         0.00629   0.09135   0.13504  -0.18011   0.34936
  28        4PY        -0.12403  -0.00760  -0.18159  -0.19724   0.05808
  29        4PZ         0.00387  -0.09973   0.11468   0.10326  -0.02954
  30        5PX        -0.11502  -0.62263  -0.21035   1.04251  -0.14528
  31        5PY         0.06983   2.97617  -0.32612  -0.70224  -1.42812
  32        5PZ         0.46584  -0.79439  -0.33652  -0.07903   0.21195
  33 3   H  1S          0.18207   0.14881  -0.38035   0.54498   0.03036
  34        2S         -1.52683  -6.00527   4.57158   5.30564   8.85359
  35        3S          0.96259  -1.18110   0.04842   0.75040   2.01619
  36        4PX        -0.10939  -0.09628   0.16520  -0.02156   0.14400
  37        4PY        -0.01576  -0.03960   0.20103  -0.12392  -0.04370
  38        4PZ         0.05199  -0.11028   0.20728  -0.21539   0.04850
  39        5PX         0.02256   0.23711   0.33745  -0.17149  -0.69623
  40        5PY        -0.05943   1.91625  -0.82718  -0.53906  -0.95899
  41        5PZ         0.69452   1.25036  -2.30596  -1.49912  -3.00369
  42 4   H  1S         -0.51578  -0.04110   0.70531   0.01296  -0.24282
  43        2S         -1.99750  -1.70691  -1.74822  -4.13553  -4.69979
  44        3S         -1.52407   3.80031  -0.22655  -0.63539  -0.66167
  45        4PX        -0.05623  -0.07355  -0.05478   0.01998   0.16184
  46        4PY         0.02159  -0.03215  -0.01451   0.01900  -0.02876
  47        4PZ        -0.11340  -0.05818   0.38311   0.15626  -0.05642
  48        5PX        -0.92816   0.60637  -0.33861   0.63825   0.46505
  49        5PY         0.00923   0.62725   0.25833   1.00580   1.54362
  50        5PZ         0.38189  -0.58569  -0.94552  -0.99169  -1.03353
  51 5   C  1S          0.05210   0.02900   0.00194  -0.06962   0.03305
  52        2S          0.96361   0.24798   0.70171  -0.62614   0.18082
  53        3S          0.70886  -2.91563   3.46488  -4.07228  -5.18088
  54        4S         -6.38918 -12.43149  -0.25258 -11.24908   5.12183
  55        5PX         0.09642  -0.16846  -0.27605  -0.04866   0.26900
  56        5PY         0.07254   0.05367   0.13177   0.07515   0.08043
  57        5PZ         0.04088   0.04671   0.10618  -0.03014   0.29928
  58        6PX        -2.65591  -1.38856  -3.56319  -0.08063  -4.08105
  59        6PY         0.89026   1.54661   0.20325   1.78522  -0.15456
  60        6PZ         0.01553   0.64715  -0.66531  -0.75101  -0.81796
  61        7PX        -2.45062  -2.18617   0.34003  -4.80317   0.84341
  62        7PY         1.12752   0.80672  -0.18052   0.09029   0.69121
  63        7PZ         0.07224  -1.08194   0.59225   0.58370   0.56392
  64        8D 0       -0.10623   0.05621  -0.38438   0.28002   0.21909
  65        8D+1       -0.01994  -0.00957   0.00558   0.09963  -0.00520
  66        8D-1       -0.02816   0.07017  -0.12381   0.09118  -0.08427
  67        8D+2       -0.16397  -0.00794  -0.31923   0.46046  -0.07963
  68        8D-2       -0.00947  -0.08133  -0.17134  -0.01351   0.08341
  69        9D 0        0.24603   0.56071  -0.30210  -0.50024  -0.01335
  70        9D+1        0.07426  -0.08768  -0.58536   0.55518  -0.58083
  71        9D-1        0.39981   0.22303  -0.27158   0.70722  -0.39727
  72        9D+2       -1.81883   0.47801  -1.53010   0.91349  -0.79467
  73        9D-2       -0.27919   3.42108  -0.64207   1.53454  -0.09927
  74 6   O  1S          0.03224   0.02238   0.05520  -0.01108   0.00767
  75        2S          0.18189  -0.14272   0.28957  -0.20547  -0.24576
  76        3S         -1.12721  -0.35024  -1.89309   0.67805   0.20387
  77        4S          0.39333   0.46955  -2.67382   3.80731  -1.21211
  78        5PX         0.02581  -0.28874  -0.08519  -0.11810  -0.14234
  79        5PY         0.03131   0.14389   0.07195  -0.07315   0.10196
  80        5PZ         0.02064   0.10233   0.12899  -0.13986  -0.08355
  81        6PX        -0.57357   1.19795  -0.75495   1.40210   0.47936
  82        6PY        -0.11893  -0.21550  -1.15077   0.66712   0.26589
  83        6PZ         0.00644  -0.12779  -0.28335   0.97602  -0.16749
  84        7PX         0.15593  -0.05166  -1.09641   2.67904  -0.50970
  85        7PY        -0.67076  -0.59842  -0.45171   0.79862  -0.55613
  86        7PZ         0.33854   0.10239  -0.58772   0.19429  -0.19528
  87        8D 0        0.03326  -0.05132   0.01297   0.05222   0.07641
  88        8D+1        0.02725  -0.00035  -0.00257   0.02290   0.01046
  89        8D-1       -0.09057   0.07632   0.04459  -0.15956   0.08872
  90        8D+2       -0.08466   0.05561  -0.12088  -0.00128  -0.00125
  91        8D-2       -0.14993  -0.06876  -0.01949  -0.07838  -0.04161
  92        9D 0       -0.10221  -0.07131   0.10070  -0.19813  -0.01657
  93        9D+1       -0.08502   0.11660  -0.16638   0.09522   0.08243
  94        9D-1       -0.07416  -0.09679  -0.26093   0.52331  -0.00227
  95        9D+2        0.28575   0.32629  -0.10651   0.13290   0.03105
  96        9D-2       -0.25729   0.29790  -0.35319   0.67518   0.24908
  97 7   O  1S          0.03072  -0.02497   0.07318  -0.01336  -0.00491
  98        2S          0.28533  -0.08676   0.87837   0.01157  -0.18345
  99        3S         -1.88920   1.28564  -3.82736   0.54668   0.37694
 100        4S         -0.50477   3.06793  -1.52870   3.11260  -1.80191
 101        5PX         0.11579  -0.01888  -0.03434   0.06569  -0.01715
 102        5PY         0.13523  -0.11227   0.02612   0.03312  -0.07977
 103        5PZ         0.05196   0.12226   0.00700   0.04046  -0.00157
 104        6PX        -0.42276  -0.48441  -0.50497   0.19840   0.30272
 105        6PY         0.47467  -0.12373   1.58513  -0.54773  -0.27049
 106        6PZ        -0.22126  -0.41392   0.13074   0.05720   0.15759
 107        7PX         0.05582   0.28138  -0.29853   1.88655  -0.06992
 108        7PY        -0.44181  -0.90817   0.25982  -0.80485   0.57969
 109        7PZ         0.12445   0.19866  -0.22931  -0.33260  -0.27585
 110        8D 0        0.08685  -0.11743  -0.00737  -0.02613   0.27452
 111        8D+1       -0.04258  -0.02534  -0.00529   0.06968   0.00179
 112        8D-1        0.04307  -0.02622  -0.06883   0.17706  -0.04029
 113        8D+2        0.17761   0.06122  -0.11191   0.00666  -0.04193
 114        8D-2        0.04803  -0.00362   0.13774   0.01720   0.14373
 115        9D 0       -0.22147  -0.07871   0.17466  -0.22902   0.03295
 116        9D+1       -0.02576   0.00450  -0.00124  -0.19899  -0.05407
 117        9D-1        0.10243   0.19061   0.03325  -0.17063  -0.04379
 118        9D+2        0.31541   0.02263   0.23797  -0.18279  -0.01644
 119        9D-2        0.05118  -0.01310   0.13210  -0.46713  -0.19082
                          31        32        33        34        35
     Eigenvalues --     0.00000   0.00000   0.00000   0.00000   0.00000
   1 1   C  1S          0.01319  -0.06948  -0.03099  -0.00648  -0.04064
[...]
     10  0.234404D-03 -0.101946D-01  0.140847D-03 -0.574349D-03  0.328261D+00
     11 -0.301828D-03 -0.147723D-01 -0.822327D-03 -0.779026D-03  0.107188D-02
     12 -0.142213D-02  0.269369D-01 -0.232941D-03  0.521363D-03  0.597891D-02
     13  0.111121D-01  0.349976D-02  0.876993D-02  0.100730D-01 -0.104332D-01
     14 -0.187985D-01  0.399068D-02  0.549350D-02  0.171671D-01  0.549206D-02
     15  0.504300D-02 -0.956185D-02 -0.123148D-01 -0.180281D-01  0.243260D-02
     16  0.226412D-03 -0.246706D-02 -0.230531D-02 -0.521006D-02  0.757874D-03
     17  0.149315D-02 -0.116378D-02  0.606550D-03 -0.398061D-02 -0.207692D-02
     18  0.983082D-03 -0.129869D-02 -0.600491D-03 -0.310828D-02 -0.375288D-02
     19 -0.181058D-02 -0.434222D-03 -0.167228D-02 -0.175261D-02  0.333213D-02
     20 -0.730018D-02  0.149215D-02  0.233340D-03 -0.248816D-02 -0.130510D-02
     21 -0.474385D-02  0.973361D-03  0.497805D-03  0.352109D-02  0.192715D-04
               11            12            13            14            15 
     11  0.423558D-01
     12  0.495327D-03  0.414595D-01
     13 -0.153720D-01 -0.263962D-01  0.416458D+00
     14 -0.755602D-03  0.534796D-03 -0.204129D+00  0.711285D+00
     15  0.370694D-02  0.215296D-02  0.176272D+00 -0.552781D-01  0.489521D+00
     16  0.124365D-03  0.696704D-03 -0.213509D+00  0.101655D+00 -0.166759D+00
     17  0.771536D-03 -0.652554D-03  0.106488D+00 -0.172674D+00  0.116095D+00
     18 -0.230549D-02 -0.657198D-02 -0.163946D+00  0.108225D+00 -0.278129D+00
     19  0.190497D-02  0.274812D-02 -0.116543D+00  0.114792D+00  0.990941D-03
     20  0.694340D-04  0.163918D-02  0.109877D+00 -0.449433D+00 -0.380604D-01
     21 -0.122910D-02 -0.117201D-04 -0.187219D-02 -0.300566D-01 -0.966254D-01
               16            17            18            19            20 
     16  0.221000D+00
     17 -0.160799D+00  0.212131D+00
     18  0.224626D+00 -0.152864D+00  0.301558D+00
     19 -0.591207D-02  0.576701D-01 -0.188453D-01  0.102775D+00
     20  0.535581D-01 -0.546656D-01  0.400489D-01 -0.171177D+00  0.551782D+00
     21 -0.212306D-01  0.467280D-01  0.188934D-01  0.228488D-01  0.260221D-01
               21 
     21  0.797861D-01
 FormGI is forming the generalized inverse of G from B-inverse, IUseBI=4.
 Force constants in internal coordinates: 
                1             2             3             4             5 
      1  0.332579D+00
      2  0.220930D-02  0.328260D+00
      3  0.220519D-02  0.246155D-02  0.328329D+00
      4  0.114527D-02  0.223694D-02  0.221814D-02  0.218923D+00
      5  0.353005D-02  0.115536D-02  0.115799D-02  0.438179D-01  0.611487D+00
      6  0.142827D-02  0.225533D-02  0.228029D-02  0.437326D-01  0.925842D-01
      7  0.728699D-02  0.699193D-02 -0.921397D-03 -0.101474D-01 -0.202179D-02
      8  0.728255D-02 -0.927587D-03  0.699425D-02 -0.101300D-01 -0.206474D-02
      9 -0.290267D-02 -0.533814D-02 -0.533175D-02  0.109875D-01 -0.202461D-02
     10 -0.314467D-03  0.727037D-02  0.727743D-02 -0.116864D-01 -0.414592D-02
     11 -0.562008D-02 -0.147305D-02 -0.599920D-02  0.100029D-01  0.502891D-02
     12 -0.561194D-02 -0.599725D-02 -0.150211D-02  0.100255D-01  0.514612D-02
     13 -0.118359D-01  0.731047D-02  0.744530D-02  0.221971D-01  0.248196D-01
     14  0.141706D-01 -0.538417D-02 -0.551263D-02  0.199732D-01 -0.475504D-01
     15 -0.233477D-02 -0.192781D-02 -0.193118D-02 -0.421703D-01  0.227308D-01
     16 -0.125768D-04  0.581209D-02 -0.578543D-02 -0.625756D-05 -0.940002D-05
     17  0.109246D-04  0.259201D-02 -0.258245D-02 -0.338561D-04 -0.255179D-05
     18 -0.347306D-02  0.150903D-02  0.294265D-02 -0.122180D-02  0.454870D-03
     19 -0.344956D-02 -0.171105D-02  0.614563D-02 -0.124940D-02  0.461718D-03
     20  0.344188D-02 -0.294511D-02 -0.149999D-02  0.127012D-02 -0.446880D-03
     21  0.346538D-02 -0.616519D-02  0.170299D-02  0.124253D-02 -0.440032D-03
                6             7             8             9            10 
      6  0.610164D+00
      7 -0.392718D-02  0.500390D-01
      8 -0.392643D-02  0.467537D-02  0.500636D-01
      9  0.115563D-01 -0.325700D-01 -0.325925D-01  0.906402D-01
     10  0.703960D-03  0.465843D-02  0.465975D-02  0.864299D-02  0.483117D-01
     11 -0.242546D-02 -0.335601D-01  0.836549D-02 -0.187865D-01 -0.323612D-01
     12 -0.245040D-02  0.836755D-02 -0.335640D-01 -0.188915D-01 -0.323437D-01
     13 -0.462621D-01  0.205967D-02  0.198197D-02 -0.167877D-01 -0.886620D-02
     14  0.238914D-01 -0.492752D-02 -0.486088D-02  0.218598D-01  0.631379D-02
     15  0.223707D-01  0.286928D-02  0.287748D-02 -0.507210D-02  0.255242D-02
     16 -0.629216D-05  0.846390D-02 -0.842993D-02 -0.271199D-04 -0.169619D-04
     17  0.000000D+00  0.115140D-01 -0.114888D-01  0.267273D-04  0.104937D-04
     18 -0.999747D-03 -0.104180D-01  0.139823D-02 -0.575354D-02  0.103915D-01
     19 -0.992459D-03 -0.736790D-02 -0.166062D-02 -0.569969D-02  0.104189D-01
     20  0.984853D-03 -0.139059D-02  0.104089D-01  0.570572D-02 -0.104356D-01
     21  0.992141D-03  0.165951D-02  0.735000D-02  0.575957D-02 -0.104082D-01
               11            12            13            14            15 
     11  0.872865D-01
     12 -0.114331D-01  0.873413D-01
     13  0.108669D-01  0.111088D-01  0.165182D+00
     14 -0.945048D-02 -0.961987D-02 -0.668379D-01  0.162911D+00
     15 -0.142072D-02 -0.148462D-02 -0.983443D-01 -0.960729D-01  0.194417D+00
     16  0.982509D-02 -0.980124D-02 -0.174202D-05 -0.179855D-04  0.667251D-05
     17  0.637367D-03 -0.691542D-03  0.376459D-05 -0.121812D-04  0.206755D-04
     18  0.522106D-02 -0.187169D-03  0.105181D-02 -0.174920D-02  0.685434D-03
     19 -0.396666D-02  0.892252D-02  0.105732D-02 -0.174340D-02  0.699437D-03
     20  0.236198D-03 -0.518120D-02 -0.100227D-02  0.170379D-02 -0.713464D-03
     21 -0.895152D-02  0.392850D-02 -0.996765D-03  0.170959D-02 -0.699461D-03
               16            17            18            19            20 
     16  0.257327D-01
     17 -0.215568D-02  0.240319D-01
     18  0.842810D-02 -0.171057D-01  0.217831D-01
     19 -0.194603D-01  0.908189D-02 -0.375075D-02  0.247914D-01
     20  0.843039D-02 -0.170872D-01  0.627694D-02 -0.192407D-01  0.217824D-01
     21 -0.194580D-01  0.910041D-02 -0.192569D-01  0.930152D-02 -0.373520D-02
               21 
     21  0.248232D-01
 Leave Link  716 at Sat Aug  1 13:04:10 2020, MaxMem=   524288000 cpu:               0.2 elap:               0.0
 (Enter /home/ubuntu/g16/l103.exe)

 GradGradGradGradGradGradGradGradGradGradGradGradGradGradGradGradGradGrad
 Berny optimization.
 Red2BG is reusing G-inverse.
 Internal  Forces:  Max     0.000008914 RMS     0.000003937
 Search for a local minimum.
 Step number   1 out of a maximum of    2
 All quantities printed in internal units (Hartrees-Bohrs-Radians)
 Second derivative matrix not updated -- analytic derivatives used.
 ITU=  0
     Eigenvalues ---   -0.00001   0.05167   0.05521   0.07598   0.10671
     Eigenvalues ---    0.11767   0.12756   0.18596   0.22119   0.31948
     Eigenvalues ---    0.32669   0.33307   0.33762   0.53609   0.71399
 Eigenvalue     1 is  -5.72D-06 should be greater than     0.000000 Eigenvector:
                          D3        D5        D4        D6        D1
   1                    0.43456   0.43420   0.40813   0.40776   0.39239
                          D2        A1        A2        A6        A5
   1                    0.36596  -0.02191   0.02166   0.02147  -0.02135
 Angle between quadratic step and forces=  89.27 degrees.
 Linear search not attempted -- first point.
 Iteration  1 RMS(Cart)=  0.00259645 RMS(Int)=  0.00000338
 Iteration  2 RMS(Cart)=  0.00000350 RMS(Int)=  0.00000002
 Iteration  3 RMS(Cart)=  0.00000000 RMS(Int)=  0.00000002
 ITry= 1 IFail=0 DXMaxC= 5.20D-03 DCOld= 1.00D+10 DXMaxT= 3.00D-01 DXLimC= 3.00D+00 Rises=F
 Variable       Old X    -DE/DX   Delta X   Delta X   Delta X     New X
                                 (Linear)    (Quad)   (Total)
    R1        2.07814   0.00001   0.00000   0.00002   0.00002   2.07815
    R2        2.08253  -0.00000   0.00000   0.00003   0.00003   2.08256
    R3        2.08245  -0.00000   0.00000  -0.00004  -0.00004   2.08241
    R4        2.94765  -0.00001   0.00000  -0.00003  -0.00003   2.94761
    R5        2.38387   0.00001   0.00000   0.00002   0.00002   2.38389
    R6        2.38490   0.00000   0.00000  -0.00000  -0.00000   2.38490
    A1        1.91129  -0.00000   0.00000  -0.00033  -0.00033   1.91097
    A2        1.91187   0.00000   0.00000   0.00028   0.00028   1.91215
    A3        1.94618   0.00000   0.00000  -0.00002  -0.00002   1.94616
    A4        1.86834   0.00000   0.00000   0.00001   0.00001   1.86836
    A5        1.91193   0.00000   0.00000  -0.00023  -0.00023   1.91170
    A6        1.91258   0.00000   0.00000   0.00029   0.00029   1.91286
    A7        2.03022  -0.00001   0.00000  -0.00003  -0.00003   2.03019
    A8        2.00932   0.00001   0.00000   0.00005   0.00005   2.00937
    A9        2.24365  -0.00000   0.00000  -0.00001  -0.00001   2.24363
    D1        0.00568  -0.00000   0.00000   0.00501   0.00501   0.01069
    D2       -3.13637   0.00000   0.00000   0.00474   0.00474  -3.13162
    D3       -2.11291  -0.00000   0.00000   0.00560   0.00560  -2.10731
    D4        1.02823   0.00000   0.00000   0.00533   0.00533   1.03356
    D5        2.12543  -0.00000   0.00000   0.00555   0.00555   2.13098
    D6       -1.01661   0.00000   0.00000   0.00528   0.00528  -1.01133
         Item               Value     Threshold  Converged?
 Maximum Force            0.000009     0.000450     YES
 RMS     Force            0.000004     0.000300     YES
 Maximum Displacement     0.005204     0.001800     NO 
 RMS     Displacement     0.002596     0.001200     NO 
 Predicted change in Energy=-2.427537D-09
                           ----------------------------
                           ! Non-Optimized Parameters !
                           ! (Angstroms and Degrees)  !
 --------------------------                            --------------------------
 ! Name  Definition              Value          Derivative Info.                !
 --------------------------------------------------------------------------------
 ! R1    R(1,2)                  1.0997         -DE/DX =    0.0                 !
 ! R2    R(1,3)                  1.102          -DE/DX =    0.0                 !
 ! R3    R(1,4)                  1.102          -DE/DX =    0.0                 !
 ! R4    R(1,5)                  1.5598         -DE/DX =    0.0                 !
 ! R5    R(5,6)                  1.2615         -DE/DX =    0.0                 !
 ! R6    R(5,7)                  1.262          -DE/DX =    0.0                 !
 ! A1    A(2,1,3)              109.4903         -DE/DX =    0.0                 !
 ! A2    A(2,1,4)              109.5583         -DE/DX =    0.0                 !
 ! A3    A(2,1,5)              111.507          -DE/DX =    0.0                 !
 ! A4    A(3,1,4)              107.0489         -DE/DX =    0.0                 !
 ! A5    A(3,1,5)              109.5322         -DE/DX =    0.0                 !
 ! A6    A(4,1,5)              109.5991         -DE/DX =    0.0                 !
 ! A7    A(1,5,6)              116.3211         -DE/DX =    0.0                 !
 ! A8    A(1,5,7)              115.1283         -DE/DX =    0.0                 !
 ! A9    A(6,5,7)              128.5506         -DE/DX =    0.0                 !
 ! D1    D(2,1,5,6)              0.6125         -DE/DX =    0.0                 !
 ! D2    D(2,1,5,7)           -179.4288         -DE/DX =    0.0                 !
 ! D3    D(3,1,5,6)           -120.74           -DE/DX =    0.0                 !
 ! D4    D(3,1,5,7)             59.2187         -DE/DX =    0.0                 !
 ! D5    D(4,1,5,6)            122.0962         -DE/DX =    0.0                 !
 ! D6    D(4,1,5,7)            -57.9451         -DE/DX =    0.0                 !
 --------------------------------------------------------------------------------
 GradGradGradGradGradGradGradGradGradGradGradGradGradGradGradGradGradGrad

 Leave Link  103 at Sat Aug  1 13:04:10 2020, MaxMem=   524288000 cpu:               0.2 elap:               0.0
 (Enter /home/ubuntu/g16/l9999.exe)

 ----------------------------------------------------------------------

 Electric dipole moment (input orientation):
 (Debye = 10**-18 statcoulomb cm , SI units = C m)
                  (au)            (Debye)         (10**-30 SI)
   Tot        0.143980D+01      0.365960D+01      0.122071D+02
   x         -0.431863D+00     -0.109769D+01     -0.366149D+01
   y         -0.760517D+00     -0.193304D+01     -0.644793D+01
   z         -0.114373D+01     -0.290707D+01     -0.969695D+01

 Dipole polarizability, Alpha (input orientation).
 (esu units = cm**3 , SI units = C**2 m**2 J**-1)
 Alpha(0;0):
               (au)            (10**-24 esu)      (10**-40 SI)
   iso        0.477854D+02      0.708107D+01      0.787875D+01
   aniso      0.200315D+02      0.296836D+01      0.330274D+01
   xx         0.410665D+02      0.608542D+01      0.677094D+01
   yx        -0.287214D+01     -0.425607D+00     -0.473552D+00
   yy         0.510780D+02      0.756898D+01      0.842163D+01
   zx         0.832695D+01      0.123393D+01      0.137293D+01
   zy         0.472261D+01      0.699819D+00      0.778653D+00
   zz         0.512118D+02      0.758880D+01      0.844368D+01

 ----------------------------------------------------------------------

 Dipole orientation:
     6          6.33979828          3.74740456         -4.80742335
     1          7.17657080          5.48535029         -4.03411636
     1          7.40426933          2.09603938         -4.11691011
     1          4.38593615          3.54725773         -4.11534751
     6          6.34708686          3.76321118         -7.75501807
     8          7.28743500          5.68874893         -8.79946263
     8          5.40283255          1.82807762         -8.78038690

 Electric dipole moment (dipole orientation):
 (Debye = 10**-18 statcoulomb cm , SI units = C m)
                  (au)            (Debye)         (10**-30 SI)
   Tot        0.143980D+01      0.365960D+01      0.122071D+02
   x          0.000000D+00      0.000000D+00      0.000000D+00
   y          0.000000D+00      0.000000D+00      0.000000D+00
   z          0.143980D+01      0.365960D+01      0.122071D+02

 Dipole polarizability, Alpha (dipole orientation).
 (esu units = cm**3 , SI units = C**2 m**2 J**-1)
 Alpha(0;0):
               (au)            (10**-24 esu)      (10**-40 SI)
   iso        0.477854D+02      0.708107D+01      0.787875D+01
   aniso      0.200315D+02      0.296836D+01      0.330274D+01
   xx         0.380443D+02      0.563759D+01      0.627267D+01
   yx         0.639882D+01      0.948208D+00      0.105502D+01
   yy         0.480290D+02      0.711717D+01      0.791891D+01
   zx        -0.205183D+00     -0.304050D-01     -0.338301D-01
   zy        -0.437357D+00     -0.648096D-01     -0.721104D-01
   zz         0.572829D+02      0.848845D+01      0.944467D+01

 ----------------------------------------------------------------------
 1\1\GINC-LC06-1-2\Freq\UB3LYP\Aug-CC-pVDZ\C2H3O2(1-)\UBUNTU\01-Aug-202
 0\0\\#P Geom=AllCheck Guess=TCheck SCRF=Check GenChk UB3LYP/Aug-CC-pVD
 Z Freq\\AcO-_UB3LYP-aug-cc-pVDZ\\-1,1\C,4.12482,-0.62716,2.06204\H,4.5
 0388,-1.65909,2.08994\H,4.47311,-0.13192,1.14123\H,3.02352,-0.63987,2.
 0253\C,4.59708,0.18934,3.30436\O,5.32549,-0.42317,4.13237\O,4.19479,1.
 38487,3.34436\\Version=ES64L-G16RevA.03\State=1-A\HF=-228.5625015\S2=0
 .\S2-1=0.\S2A=0.\RMSD=1.725e-09\RMSF=5.885e-06\ZeroPoint=0.0474209\The
 rmal=0.0510143\Dipole=-0.4318629,-0.7605167,-1.1437307\DipoleDeriv=0.1
 314676,-0.1255958,-0.2060346,-0.1065655,0.0375867,-0.2757832,-0.195374
 2,-0.3073647,-0.2839168,0.0206139,0.0996683,0.0188845,0.0465576,-0.228
 7649,-0.0804439,-0.0115058,0.0069175,0.0290676,0.021552,-0.0274308,0.1
 059137,-0.0411888,-0.0107724,0.1254641,0.0331702,0.0417202,-0.1702301,
 -0.2266936,-0.044942,-0.0719141,0.0094349,0.0314481,-0.0210471,0.02435
 69,-0.003738,0.0356032,0.686749,-0.5943576,0.7430119,-0.5904887,1.8149
 143,0.0843837,0.7451039,0.0778045,1.2744036,-0.9403457,0.3869798,-0.47
 31529,0.2821314,-0.9639581,0.1956925,-0.5336067,0.3657298,-1.1663618,-
 0.6933432,0.3056781,-0.1167085,0.4001191,-1.6804537,-0.0282663,-0.0621
 442,-0.1810693,-0.7185658\Polar=41.0664587,-2.8721381,51.0780169,8.326
 9492,4.7226093,51.211765\Quadrupole=2.0278843,-2.0678053,0.0399209,2.2
 258424,-2.6562868,-0.1711641\PG=C01 [X(C2H3O2)]\NImag=1\\0.51100871,-0
 .04248003,0.52597364,-0.02183121,-0.05948725,0.43876741,-0.07767059,0.
 08736787,-0.00196706,0.08008023,0.08493155,-0.27209589,0.00914996,-0.0
 9513096,0.29629708,-0.00335488,0.01305701,-0.04370721,0.00378181,-0.01
 107272,0.04422010,-0.06494917,-0.03610159,0.06990785,0.00348503,0.0041
 1963,-0.01018931,0.07106023,-0.03640924,-0.09671600,0.09839789,-0.0109
 5913,-0.01167174,0.02292303,0.04243519,0.10287668,0.07454063,0.0993239
 4,-0.22055202,-0.00030835,-0.00057277,-0.00037298,-0.07676829,-0.10867
 049,0.23801892,-0.30258755,-0.00242432,-0.00433796,-0.00913604,-0.0008
 9844,0.00023440,-0.01019456,0.00014085,-0.00057435,0.32826133,-0.00160
 347,-0.04364694,0.00041318,0.02864652,0.00202808,-0.00030183,-0.014772
 28,-0.00082233,-0.00077903,0.00107188,0.04235582,-0.00865028,-0.001215
 03,-0.03612805,-0.00131419,-0.00056878,-0.00142213,0.02693694,-0.00023
 294,0.00052136,0.00597891,0.00049533,0.04145955,-0.07999970,-0.0166647
 9,-0.00524272,0.00052704,0.01103076,0.01111213,0.00349976,0.00876993,0
 .01007304,-0.01043318,-0.01537198,-0.02639620,0.41645794,-0.01515279,-
 0.07781350,-0.02179400,-0.00664741,-0.01610299,-0.01879847,0.00399068,
 0.00549350,0.01716712,0.00549206,-0.00075560,0.00053480,-0.20412898,0.
 71128543,-0.00437874,-0.02427291,-0.10393502,0.00100458,0.01012472,0.0
 0504300,-0.00956185,-0.01231481,-0.01802809,0.00243260,0.00370694,0.00
 215296,0.17627194,-0.05527814,0.48952116,-0.00038928,0.00950357,-0.032
 34950,0.00052023,-0.00173624,0.00022641,-0.00246706,-0.00230531,-0.005
 21006,0.00075787,0.00012436,0.00069670,-0.21350933,0.10165479,-0.16675
 947,0.22099964,0.00081497,0.00880036,-0.00681831,-0.00093348,0.0050299
 8,0.00149315,-0.00116378,0.00060655,-0.00398061,-0.00207692,0.00077154
 ,-0.00065255,0.10648839,-0.17267361,0.11609458,-0.16079927,0.21213080,
 -0.03743980,0.00731408,-0.03362539,0.00065621,0.00018194,0.00098308,-0
 .00129869,-0.00060049,-0.00310828,-0.00375288,-0.00230549,-0.00657198,
 -0.16394601,0.10822528,-0.27812864,0.22462647,-0.15286421,0.30155777,0
 .01458759,0.00079929,-0.00417939,0.00219410,-0.00231629,-0.00181058,-0
 .00043422,-0.00167228,-0.00175261,0.00333213,0.00190497,0.00274812,-0.
 11654252,0.11479165,0.00099094,-0.00591207,0.05767008,-0.01884531,0.10
 277500,0.00989902,-0.04450167,-0.01986148,-0.00234342,-0.00348452,-0.0
 0730018,0.00149215,0.00023334,-0.00248816,-0.00130510,0.00006943,0.001
 63918,0.10987667,-0.44943324,-0.03806038,0.05355810,-0.05466562,0.0400
 4889,-0.17117742,0.55178227,0.00111427,-0.03471985,-0.00081972,-0.0018
 5300,-0.00724234,-0.00474385,0.00097336,0.00049780,0.00352109,0.000019
 27,-0.00122910,-0.00001172,-0.00187219,-0.03005659,-0.09662537,-0.0212
 3055,0.04672795,0.01889343,0.02284883,0.02602212,0.07978615\\0.0000038
 5,-0.00000766,-0.00000755,-0.00000319,0.00000440,0.00000164,-0.0000010
 4,0.00000395,-0.00000018,-0.00000139,0.00000057,-0.00000037,0.00000212
 ,-0.00000621,0.00001916,-0.00000208,0.00000663,-0.00000681,0.00000173,
 -0.00000169,-0.00000590\\\@


 ERWIN WITH HIS PSI CAN DO
 CALCULATIONS QUITE A FEW.
 BUT ONE THING HAS NOT BEEN SEEN
 JUST WHAT DOES PSI REALLY MEAN.
 -- WALTER HUCKEL, TRANS. BY FELIX BLOCH
 Job cpu time:       0 days  0 hours  8 minutes 42.9 seconds.
 Elapsed time:       0 days  0 hours  1 minutes 15.2 seconds.
 File lengths (MBytes):  RWF=     26 Int=      0 D2E=      0 Chk=      3 Scr=      1
 Normal termination of Gaussian 16 at Sat Aug  1 13:04:10 2020.
