 Entering Gaussian System, Link 0=/home/ubuntu/g16/g16
 Input=BF4-_UB3LYP-aug-cc-pVDZ-Opt.gjf
 Output=BF4-_UB3LYP-aug-cc-pVDZ-Opt.log
 Initial command:
 /home/ubuntu/g16/l1.exe "/home/ubuntu/g16/Gau-23662.inp" -scrdir="/home/ubuntu/g16/"
 Entering Link 1 = /home/ubuntu/g16/l1.exe PID=     23664.
  
 Copyright (c) 1988,1990,1992,1993,1995,1998,2003,2009,2016,
            Gaussian, Inc.  All Rights Reserved.
  
 This is part of the Gaussian(R) 16 program.  It is based on
 the Gaussian(R) 09 system (copyright 2009, Gaussian, Inc.),
 the Gaussian(R) 03 system (copyright 2003, Gaussian, Inc.),
 the Gaussian(R) 98 system (copyright 1998, Gaussian, Inc.),
 the Gaussian(R) 94 system (copyright 1995, Gaussian, Inc.),
 the Gaussian 92(TM) system (copyright 1992, Gaussian, Inc.),
 the Gaussian 90(TM) system (copyright 1990, Gaussian, Inc.),
 the Gaussian 88(TM) system (copyright 1988, Gaussian, Inc.),
 the Gaussian 86(TM) system (copyright 1986, Carnegie Mellon
 University), and the Gaussian 82(TM) system (copyright 1983,
 Carnegie Mellon University). Gaussian is a federally registered
 trademark of Gaussian, Inc.
  
 This software contains proprietary and confidential information,
 including trade secrets, belonging to Gaussian, Inc.
  
 This software is provided under written license and may be
 used, copied, transmitted, or stored only in accord with that
 written license.
  
 The following legend is applicable only to US Government
 contracts under FAR:
  
                    RESTRICTED RIGHTS LEGEND
  
 Use, reproduction and disclosure by the US Government is
 subject to restrictions as set forth in subparagraphs (a)
 and (c) of the Commercial Computer Software - Restricted
 Rights clause in FAR 52.227-19.
  
 Gaussian, Inc.
 340 Quinnipiac St., Bldg. 40, Wallingford CT 06492
  
  
 ---------------------------------------------------------------
 Warning -- This program may not be used in any manner that
 competes with the business of Gaussian, Inc. or will provide
 assistance to any competitor of Gaussian, Inc.  The licensee
 of this program is prohibited from giving any competitor of
 Gaussian, Inc. access to this program.  By using this program,
 the user acknowledges that Gaussian, Inc. is engaged in the
 business of creating and licensing software in the field of
 computational chemistry and represents and warrants to the
 licensee that it is not a competitor of Gaussian, Inc. and that
 it will not use this program in any manner prohibited above.
 ---------------------------------------------------------------
  

 Cite this work as:
 Gaussian 16, Revision A.03,
 M. J. Frisch, G. W. Trucks, H. B. Schlegel, G. E. Scuseria, 
 M. A. Robb, J. R. Cheeseman, G. Scalmani, V. Barone, 
 G. A. Petersson, H. Nakatsuji, X. Li, M. Caricato, A. V. Marenich, 
 J. Bloino, B. G. Janesko, R. Gomperts, B. Mennucci, H. P. Hratchian, 
 J. V. Ortiz, A. F. Izmaylov, J. L. Sonnenberg, D. Williams-Young, 
 F. Ding, F. Lipparini, F. Egidi, J. Goings, B. Peng, A. Petrone, 
 T. Henderson, D. Ranasinghe, V. G. Zakrzewski, J. Gao, N. Rega, 
 G. Zheng, W. Liang, M. Hada, M. Ehara, K. Toyota, R. Fukuda, 
 J. Hasegawa, M. Ishida, T. Nakajima, Y. Honda, O. Kitao, H. Nakai, 
 T. Vreven, K. Throssell, J. A. Montgomery, Jr., J. E. Peralta, 
 F. Ogliaro, M. J. Bearpark, J. J. Heyd, E. N. Brothers, K. N. Kudin, 
 V. N. Staroverov, T. A. Keith, R. Kobayashi, J. Normand, 
 K. Raghavachari, A. P. Rendell, J. C. Burant, S. S. Iyengar, 
 J. Tomasi, M. Cossi, J. M. Millam, M. Klene, C. Adamo, R. Cammi, 
 J. W. Ochterski, R. L. Martin, K. Morokuma, O. Farkas, 
 J. B. Foresman, and D. J. Fox, Gaussian, Inc., Wallingford CT, 2016.
 
 ******************************************
 Gaussian 16:  ES64L-G16RevA.03 25-Dec-2016
                 1-Aug-2020 
 ******************************************
 %chk=BF4-_UB3LYP-aug-cc-pVDZ-Opt.chk
 %mem=500MW
 %nproc=7
 Will use up to    7 processors via shared memory.
 ----------------------------------------------------------------------
 #p opt=(maxcycles=777) freq ub3lyp/aug-cc-pVDZ pop=(Bonding,AllOrbital
 s,mk,no,nboread)
 ----------------------------------------------------------------------
 1/6=777,18=20,19=15,26=3,38=1/1,3;
 2/9=110,12=2,17=6,18=5,40=1/2;
 3/5=16,7=10,11=2,25=1,30=1,71=1,74=-5,116=2/1,2,3;
 4//1;
 5/5=2,38=5/2;
 6/7=2,8=2,9=2,10=2,15=8,20=1,22=-1,27=20,28=1,31=1,40=2,96=-1/1,2,7;
 7//1,2,3,16;
 1/6=777,18=20,19=15,26=3/3(2);
 2/9=110/2;
 99//99;
 2/9=110/2;
 3/5=16,7=10,11=2,25=1,30=1,71=1,74=-5,116=2/1,2,3;
 4/5=5,16=3,69=1/1;
 5/5=2,38=5/2;
 7//1,2,3,16;
 1/6=777,18=20,19=15,26=3/3(-5);
 2/9=110/2;
 6/7=2,8=2,9=2,10=2,15=8,19=2,20=1,22=-1,27=20,28=1,31=1,40=2,96=-1/1,2,7;
 99/9=1/99;
 Leave Link    1 at Sat Aug  1 13:13:12 2020, MaxMem=   524288000 cpu:               0.2 elap:               0.0
 (Enter /home/ubuntu/g16/l101.exe)
 -----------------------
 BF4-_UB3LYP-aug-cc-pVDZ
 -----------------------
 Symbolic Z-matrix:
 Charge = -1 Multiplicity = 1
 B                     5.97651   1.23443   0.91672 
 F                     6.45008   1.90482  -0.24461 
 F                     6.45007   1.90479   2.07808 
 F                     4.55415   1.23433   0.91671 
 F                     6.44999  -0.10657   0.91671 
 
 ITRead=  0  0  0  0  0
 MicOpt= -1 -1 -1 -1 -1
 NAtoms=      5 NQM=        5 NQMF=       0 NMMI=      0 NMMIF=      0
                NMic=       0 NMicF=      0.
                    Isotopes and Nuclear Properties:
 (Nuclear quadrupole moments (NQMom) in fm**2, nuclear magnetic moments (NMagM)
  in nuclear magnetons)

  Atom         1           2           3           4           5
 IAtWgt=          11          19          19          19          19
 AtmWgt=  11.0093053  18.9984033  18.9984033  18.9984033  18.9984033
 NucSpn=           3           1           1           1           1
 AtZEff=  -0.0000000  -0.0000000  -0.0000000  -0.0000000  -0.0000000
 NQMom=    4.0590000   0.0000000   0.0000000   0.0000000   0.0000000
 NMagM=    2.6886370   2.6288670   2.6288670   2.6288670   2.6288670
 AtZNuc=   5.0000000   9.0000000   9.0000000   9.0000000   9.0000000
 Leave Link  101 at Sat Aug  1 13:13:12 2020, MaxMem=   524288000 cpu:               0.6 elap:               0.1
 (Enter /home/ubuntu/g16/l103.exe)

 GradGradGradGradGradGradGradGradGradGradGradGradGradGradGradGradGradGrad
 Berny optimization.
 Initialization pass.
                           ----------------------------
                           !    Initial Parameters    !
                           ! (Angstroms and Degrees)  !
 --------------------------                            --------------------------
 ! Name  Definition              Value          Derivative Info.                !
 --------------------------------------------------------------------------------
 ! R1    R(1,2)                  1.4221         estimate D2E/DX2                !
 ! R2    R(1,3)                  1.4221         estimate D2E/DX2                !
 ! R3    R(1,4)                  1.4224         estimate D2E/DX2                !
 ! R4    R(1,5)                  1.4221         estimate D2E/DX2                !
 ! A1    A(2,1,3)              109.4991         estimate D2E/DX2                !
 ! A2    A(2,1,4)              109.453          estimate D2E/DX2                !
 ! A3    A(2,1,5)              109.4897         estimate D2E/DX2                !
 ! A4    A(3,1,4)              109.4532         estimate D2E/DX2                !
 ! A5    A(3,1,5)              109.4892         estimate D2E/DX2                !
 ! A6    A(4,1,5)              109.4431         estimate D2E/DX2                !
 ! D1    D(2,1,4,3)           -120.0119         estimate D2E/DX2                !
 ! D2    D(2,1,5,3)            120.0565         estimate D2E/DX2                !
 ! D3    D(2,1,5,4)           -119.9718         estimate D2E/DX2                !
 ! D4    D(3,1,5,4)            119.9717         estimate D2E/DX2                !
 --------------------------------------------------------------------------------
 Trust Radius=3.00D-01 FncErr=1.00D-07 GrdErr=1.00D-06 EigMax=2.50D+02 EigMin=1.00D-04
 Number of steps in this run=    100 maximum allowed number of steps=    100.
 GradGradGradGradGradGradGradGradGradGradGradGradGradGradGradGradGradGrad

 Leave Link  103 at Sat Aug  1 13:13:12 2020, MaxMem=   524288000 cpu:               0.1 elap:               0.0
 (Enter /home/ubuntu/g16/l202.exe)
                          Input orientation:                          
 ---------------------------------------------------------------------
 Center     Atomic      Atomic             Coordinates (Angstroms)
 Number     Number       Type             X           Y           Z
 ---------------------------------------------------------------------
      1          5           0        5.976510    1.234430    0.916720
      2          9           0        6.450080    1.904820   -0.244610
      3          9           0        6.450070    1.904790    2.078080
      4          9           0        4.554150    1.234330    0.916710
      5          9           0        6.449990   -0.106570    0.916710
 ---------------------------------------------------------------------
                    Distance matrix (angstroms):
                    1          2          3          4          5
     1  B    0.000000
     2  F    1.422104   0.000000
     3  F    1.422111   2.322690   0.000000
     4  F    1.422360   2.322234   2.322242   0.000000
     5  F    1.422134   2.322575   2.322574   2.322116   0.000000
 Stoichiometry    BF4(1-)
 Framework group  C1[X(BF4)]
 Deg. of freedom     9
 Full point group                 C1      NOp   1
 Largest Abelian subgroup         C1      NOp   1
 Largest concise Abelian subgroup C1      NOp   1
                         Standard orientation:                         
 ---------------------------------------------------------------------
 Center     Atomic      Atomic             Coordinates (Angstroms)
 Number     Number       Type             X           Y           Z
 ---------------------------------------------------------------------
      1          5           0       -0.000001   -0.000117   -0.000374
      2          9           0        1.158381   -0.717153   -0.408284
      3          9           0       -1.164245   -0.717257   -0.391070
      4          9           0        0.010478    0.151784    1.413813
      5          9           0       -0.004613    1.282691   -0.614251
 ---------------------------------------------------------------------
 Rotational constants (GHZ):           4.9326168           4.9323027           4.9311162
 Leave Link  202 at Sat Aug  1 13:13:12 2020, MaxMem=   524288000 cpu:               0.1 elap:               0.0
 (Enter /home/ubuntu/g16/l301.exe)
 Standard basis: Aug-CC-pVDZ (5D, 7F)
 Ernie: Thresh=  0.10000D-02 Tol=  0.10000D-05 Strict=F.
 Ernie:  10 primitive shells out of 125 were deleted.
 There are   125 symmetry adapted cartesian basis functions of A   symmetry.
 There are   115 symmetry adapted basis functions of A   symmetry.
   115 basis functions,   215 primitive gaussians,   125 cartesian basis functions
    21 alpha electrons       21 beta electrons
       nuclear repulsion energy       177.7148195105 Hartrees.
 IExCor=  402 DFT=T Ex+Corr=B3LYP ExCW=0 ScaHFX=  0.200000
 ScaDFX=  0.800000  0.720000  1.000000  0.810000 ScalE2=  1.000000  1.000000
 IRadAn=      5 IRanWt=     -1 IRanGd=            0 ICorTp=0 IEmpDi=  4
 NAtoms=    5 NActive=    5 NUniq=    5 SFac= 1.00D+00 NAtFMM=   60 NAOKFM=F Big=F
 Integral buffers will be    131072 words long.
 Raffenetti 2 integral format.
 Two-electron integral symmetry is turned on.
 Leave Link  301 at Sat Aug  1 13:13:12 2020, MaxMem=   524288000 cpu:               0.3 elap:               0.1
 (Enter /home/ubuntu/g16/l302.exe)
 NPDir=0 NMtPBC=     1 NCelOv=     1 NCel=       1 NClECP=     1 NCelD=      1
         NCelK=      1 NCelE2=     1 NClLst=     1 CellRange=     0.0.
 One-electron integrals computed using PRISM.
 One-electron integral symmetry used in STVInt
 NBasis=   115 RedAO= T EigKep=  6.62D-04  NBF=   115
 NBsUse=   115 1.00D-06 EigRej= -1.00D+00 NBFU=   115
 Precomputing XC quadrature grid using
 IXCGrd= 4 IRadAn=           5 IRanWt=          -1 IRanGd=           0 AccXCQ= 0.00D+00.
 Generated NRdTot=       0 NPtTot=           0 NUsed=           0 NTot=          32
 NSgBfM=   125   125   125   125   125 MxSgAt=     5 MxSgA2=     5.
 Leave Link  302 at Sat Aug  1 13:13:12 2020, MaxMem=   524288000 cpu:               1.2 elap:               0.2
 (Enter /home/ubuntu/g16/l303.exe)
 DipDrv:  MaxL=1.
 Leave Link  303 at Sat Aug  1 13:13:12 2020, MaxMem=   524288000 cpu:               0.2 elap:               0.0
 (Enter /home/ubuntu/g16/l401.exe)
 ExpMin= 2.38D-02 ExpMax= 1.47D+04 ExpMxC= 5.03D+02 IAcc=3 IRadAn=         5 AccDes= 0.00D+00
 Harris functional with IExCor=  402 and IRadAn=       5 diagonalized for initial guess.
 HarFok:  IExCor=  402 AccDes= 0.00D+00 IRadAn=         5 IDoV= 1 UseB2=F ITyADJ=14
 ICtDFT=  3500011 ScaDFX=  1.000000  1.000000  1.000000  1.000000
 FoFCou: FMM=F IPFlag=           0 FMFlag=      100000 FMFlg1=           0
         NFxFlg=           0 DoJE=T BraDBF=F KetDBF=T FulRan=T
         wScrn=  0.000000 ICntrl=       500 IOpCl=  0 I1Cent=   200000004 NGrid=           0
         NMat0=    1 NMatS0=      1 NMatT0=    0 NMatD0=    1 NMtDS0=    0 NMtDT0=    0
 Petite list used in FoFCou.
 Harris En= -424.691956328364    
 JPrj=0 DoOrth=F DoCkMO=F.
 Initial guess <Sx>= 0.0000 <Sy>= 0.0000 <Sz>= 0.0000 <S**2>=-0.0000 S=-0.0000
 Leave Link  401 at Sat Aug  1 13:13:13 2020, MaxMem=   524288000 cpu:               3.4 elap:               0.5
 (Enter /home/ubuntu/g16/l502.exe)
 Keep R1 and R2 ints in memory in canonical form, NReq=51147446.
 FoFCou: FMM=F IPFlag=           0 FMFlag=           0 FMFlg1=           0
         NFxFlg=           0 DoJE=F BraDBF=F KetDBF=F FulRan=T
         wScrn=  0.000000 ICntrl=       600 IOpCl=  0 I1Cent=           0 NGrid=           0
         NMat0=    1 NMatS0=   6670 NMatT0=    0 NMatD0=    1 NMtDS0=    0 NMtDT0=    0
 Symmetry not used in FoFCou.
 Two-electron integral symmetry not used.
 UHF open shell SCF:
 Using DIIS extrapolation, IDIIS=  1040.
 NGot=   524288000 LenX=   479759068 LenY=   479743002
 Requested convergence on RMS density matrix=1.00D-08 within 128 cycles.
 Requested convergence on MAX density matrix=1.00D-06.
 Requested convergence on             energy=1.00D-06.
 No special actions if energy rises.

 Cycle   1  Pass 1  IDiag  1:
 E= -424.495863771924    
 DIIS: error= 3.58D-02 at cycle   1 NSaved=   1.
 NSaved= 1 IEnMin= 1 EnMin= -424.495863771924     IErMin= 1 ErrMin= 3.58D-02
 ErrMax= 3.58D-02  0.00D+00 EMaxC= 1.00D-01 BMatC= 5.81D-01 BMatP= 5.81D-01
 IDIUse=3 WtCom= 6.42D-01 WtEn= 3.58D-01
 Coeff-Com:  0.100D+01
 Coeff-En:   0.100D+01
 Coeff:      0.100D+01
 Gap=     0.237 Goal=   None    Shift=    0.000
 Gap=     0.237 Goal=   None    Shift=    0.000
 GapD=    0.237 DampG=1.000 DampE=0.500 DampFc=0.5000 IDamp=-1.
 Damping current iteration by 5.00D-01
 RMSDP=5.36D-03 MaxDP=8.72D-02              OVMax= 1.20D-01

 Cycle   2  Pass 1  IDiag  1:
 E= -424.526021283157     Delta-E=       -0.030157511233 Rises=F Damp=T
 DIIS: error= 8.99D-03 at cycle   2 NSaved=   2.
 NSaved= 2 IEnMin= 2 EnMin= -424.526021283157     IErMin= 2 ErrMin= 8.99D-03
 ErrMax= 8.99D-03  0.00D+00 EMaxC= 1.00D-01 BMatC= 3.93D-02 BMatP= 5.81D-01
 IDIUse=3 WtCom= 9.10D-01 WtEn= 8.99D-02
 Coeff-Com:  0.194D+00 0.806D+00
 Coeff-En:   0.316D+00 0.684D+00
 Coeff:      0.205D+00 0.795D+00
 Gap=     0.314 Goal=   None    Shift=    0.000
 Gap=     0.314 Goal=   None    Shift=    0.000
 RMSDP=7.04D-04 MaxDP=1.25D-02 DE=-3.02D-02 OVMax= 6.80D-02

 Cycle   3  Pass 1  IDiag  1:
 E= -424.590230496548     Delta-E=       -0.064209213391 Rises=F Damp=F
 DIIS: error= 9.06D-04 at cycle   3 NSaved=   3.
 NSaved= 3 IEnMin= 3 EnMin= -424.590230496548     IErMin= 3 ErrMin= 9.06D-04
 ErrMax= 9.06D-04  0.00D+00 EMaxC= 1.00D-01 BMatC= 4.05D-04 BMatP= 3.93D-02
 IDIUse=3 WtCom= 9.91D-01 WtEn= 9.06D-03
 Coeff-Com:  0.212D-01 0.483D-01 0.931D+00
 Coeff-En:   0.000D+00 0.000D+00 0.100D+01
 Coeff:      0.210D-01 0.478D-01 0.931D+00
 Gap=     0.321 Goal=   None    Shift=    0.000
 Gap=     0.321 Goal=   None    Shift=    0.000
 RMSDP=1.16D-04 MaxDP=2.57D-03 DE=-6.42D-02 OVMax= 2.80D-03

 Cycle   4  Pass 1  IDiag  1:
 E= -424.590284471164     Delta-E=       -0.000053974616 Rises=F Damp=F
 DIIS: error= 6.03D-04 at cycle   4 NSaved=   4.
 NSaved= 4 IEnMin= 4 EnMin= -424.590284471164     IErMin= 4 ErrMin= 6.03D-04
 ErrMax= 6.03D-04  0.00D+00 EMaxC= 1.00D-01 BMatC= 1.34D-04 BMatP= 4.05D-04
 IDIUse=3 WtCom= 9.94D-01 WtEn= 6.03D-03
 Coeff-Com:  0.221D-02-0.141D-01 0.379D+00 0.633D+00
 Coeff-En:   0.000D+00 0.000D+00 0.169D+00 0.831D+00
 Coeff:      0.220D-02-0.140D-01 0.378D+00 0.634D+00
 Gap=     0.319 Goal=   None    Shift=    0.000
 Gap=     0.319 Goal=   None    Shift=    0.000
 RMSDP=4.56D-05 MaxDP=9.81D-04 DE=-5.40D-05 OVMax= 1.19D-03

 Cycle   5  Pass 1  IDiag  1:
 E= -424.590312713308     Delta-E=       -0.000028242144 Rises=F Damp=F
 DIIS: error= 2.67D-05 at cycle   5 NSaved=   5.
 NSaved= 5 IEnMin= 5 EnMin= -424.590312713308     IErMin= 5 ErrMin= 2.67D-05
 ErrMax= 2.67D-05  0.00D+00 EMaxC= 1.00D-01 BMatC= 3.72D-07 BMatP= 1.34D-04
 IDIUse=1 WtCom= 1.00D+00 WtEn= 0.00D+00
 Coeff-Com:  0.616D-03-0.266D-02 0.431D-01 0.851D-01 0.874D+00
 Coeff:      0.616D-03-0.266D-02 0.431D-01 0.851D-01 0.874D+00
 Gap=     0.320 Goal=   None    Shift=    0.000
 Gap=     0.320 Goal=   None    Shift=    0.000
 RMSDP=2.37D-06 MaxDP=3.51D-05 DE=-2.82D-05 OVMax= 3.53D-05

 Cycle   6  Pass 1  IDiag  1:
 E= -424.590312766153     Delta-E=       -0.000000052844 Rises=F Damp=F
 DIIS: error= 4.89D-06 at cycle   6 NSaved=   6.
 NSaved= 6 IEnMin= 6 EnMin= -424.590312766153     IErMin= 6 ErrMin= 4.89D-06
 ErrMax= 4.89D-06  0.00D+00 EMaxC= 1.00D-01 BMatC= 2.08D-08 BMatP= 3.72D-07
 IDIUse=1 WtCom= 1.00D+00 WtEn= 0.00D+00
 Coeff-Com:  0.237D-03-0.858D-03 0.110D-01 0.258D-01 0.327D+00 0.637D+00
 Coeff:      0.237D-03-0.858D-03 0.110D-01 0.258D-01 0.327D+00 0.637D+00
 Gap=     0.320 Goal=   None    Shift=    0.000
 Gap=     0.320 Goal=   None    Shift=    0.000
 RMSDP=6.34D-07 MaxDP=1.86D-05 DE=-5.28D-08 OVMax= 1.61D-05

 Cycle   7  Pass 1  IDiag  1:
 E= -424.590312768526     Delta-E=       -0.000000002374 Rises=F Damp=F
 DIIS: error= 3.19D-06 at cycle   7 NSaved=   7.
 NSaved= 7 IEnMin= 7 EnMin= -424.590312768526     IErMin= 7 ErrMin= 3.19D-06
 ErrMax= 3.19D-06  0.00D+00 EMaxC= 1.00D-01 BMatC= 7.14D-09 BMatP= 2.08D-08
 IDIUse=1 WtCom= 1.00D+00 WtEn= 0.00D+00
 Coeff-Com:  0.169D-04 0.564D-04-0.296D-02-0.250D-02 0.843D-02 0.397D+00
 Coeff-Com:  0.600D+00
 Coeff:      0.169D-04 0.564D-04-0.296D-02-0.250D-02 0.843D-02 0.397D+00
 Coeff:      0.600D+00
 Gap=     0.320 Goal=   None    Shift=    0.000
 Gap=     0.320 Goal=   None    Shift=    0.000
 RMSDP=2.73D-07 MaxDP=6.29D-06 DE=-2.37D-09 OVMax= 6.98D-06

 Cycle   8  Pass 1  IDiag  1:
 E= -424.590312769662     Delta-E=       -0.000000001136 Rises=F Damp=F
 DIIS: error= 2.39D-07 at cycle   8 NSaved=   8.
 NSaved= 8 IEnMin= 8 EnMin= -424.590312769662     IErMin= 8 ErrMin= 2.39D-07
 ErrMax= 2.39D-07  0.00D+00 EMaxC= 1.00D-01 BMatC= 2.56D-11 BMatP= 7.14D-09
 IDIUse=1 WtCom= 1.00D+00 WtEn= 0.00D+00
 Coeff-Com: -0.603D-05 0.768D-05-0.217D-04-0.127D-03-0.193D-02 0.271D-02
 Coeff-Com:  0.120D-01 0.987D+00
 Coeff:     -0.603D-05 0.768D-05-0.217D-04-0.127D-03-0.193D-02 0.271D-02
 Coeff:      0.120D-01 0.987D+00
 Gap=     0.320 Goal=   None    Shift=    0.000
 Gap=     0.320 Goal=   None    Shift=    0.000
 RMSDP=1.74D-08 MaxDP=2.36D-07 DE=-1.14D-09 OVMax= 3.73D-07

 Cycle   9  Pass 1  IDiag  1:
 E= -424.590312769666     Delta-E=       -0.000000000003 Rises=F Damp=F
 DIIS: error= 5.52D-09 at cycle   9 NSaved=   9.
 NSaved= 9 IEnMin= 9 EnMin= -424.590312769666     IErMin= 9 ErrMin= 5.52D-09
 ErrMax= 5.52D-09  0.00D+00 EMaxC= 1.00D-01 BMatC= 1.73D-14 BMatP= 2.56D-11
 IDIUse=1 WtCom= 1.00D+00 WtEn= 0.00D+00
 Coeff-Com:  0.657D-07-0.279D-07 0.285D-05 0.254D-05-0.220D-04-0.598D-03
 Coeff-Com: -0.113D-02-0.432D-01 0.104D+01
 Coeff:      0.657D-07-0.279D-07 0.285D-05 0.254D-05-0.220D-04-0.598D-03
 Coeff:     -0.113D-02-0.432D-01 0.104D+01
 Gap=     0.320 Goal=   None    Shift=    0.000
 Gap=     0.320 Goal=   None    Shift=    0.000
 RMSDP=7.61D-10 MaxDP=8.59D-09 DE=-3.41D-12 OVMax= 1.11D-08

 SCF Done:  E(UB3LYP) =  -424.590312770     A.U. after    9 cycles
            NFock=  9  Conv=0.76D-09     -V/T= 2.0055
 <Sx>= 0.0000 <Sy>= 0.0000 <Sz>= 0.0000 <S**2>=-0.0000 S=-0.0000
 <L.S>= 0.000000000000E+00
 KE= 4.222837034286D+02 PE=-1.377632888172D+03 EE= 3.530440524632D+02
 Annihilation of the first spin contaminant:
 S**2 before annihilation    -0.0000,   after    -0.0000
 Leave Link  502 at Sat Aug  1 13:13:20 2020, MaxMem=   524288000 cpu:              44.0 elap:               6.6
 (Enter /home/ubuntu/g16/l601.exe)
 Copying SCF densities to generalized density rwf, IOpCl= 1 IROHF=0.

 **********************************************************************

            Population analysis using the SCF density.

 **********************************************************************

 Orbital symmetries:
 Alpha Orbitals:
       Occupied  (A) (A) (A) (A) (A) (A) (A) (A) (A) (A) (A) (A)
                 (A) (A) (A) (A) (A) (A) (A) (A) (A)
       Virtual   (A) (A) (A) (A) (A) (A) (A) (A) (A) (A) (A) (A)
                 (A) (A) (A) (A) (A) (A) (A) (A) (A) (A) (A) (A)
                 (A) (A) (A) (A) (A) (A) (A) (A) (A) (A) (A) (A)
                 (A) (A) (A) (A) (A) (A) (A) (A) (A) (A) (A) (A)
                 (A) (A) (A) (A) (A) (A) (A) (A) (A) (A) (A) (A)
                 (A) (A) (A) (A) (A) (A) (A) (A) (A) (A) (A) (A)
                 (A) (A) (A) (A) (A) (A) (A) (A) (A) (A) (A) (A)
                 (A) (A) (A) (A) (A) (A) (A) (A) (A) (A)
 Beta  Orbitals:
       Occupied  (A) (A) (A) (A) (A) (A) (A) (A) (A) (A) (A) (A)
                 (A) (A) (A) (A) (A) (A) (A) (A) (A)
       Virtual   (A) (A) (A) (A) (A) (A) (A) (A) (A) (A) (A) (A)
                 (A) (A) (A) (A) (A) (A) (A) (A) (A) (A) (A) (A)
                 (A) (A) (A) (A) (A) (A) (A) (A) (A) (A) (A) (A)
                 (A) (A) (A) (A) (A) (A) (A) (A) (A) (A) (A) (A)
                 (A) (A) (A) (A) (A) (A) (A) (A) (A) (A) (A) (A)
                 (A) (A) (A) (A) (A) (A) (A) (A) (A) (A) (A) (A)
                 (A) (A) (A) (A) (A) (A) (A) (A) (A) (A) (A) (A)
                 (A) (A) (A) (A) (A) (A) (A) (A) (A) (A)
 The electronic state is 1-A.
     Natural Orbital Coefficients:
                           1         2         3         4         5
     Eigenvalues --     2.00000   2.00000   2.00000   2.00000   2.00000
   1 1   B  1S         -0.07054   0.10318  -0.29083   0.21033  -0.01242
   2        2S         -0.11585   0.03108   0.14069  -0.17953  -0.01923
   3        3S         -0.06073   0.02218  -0.03184   0.08666  -0.01298
   4        4S         -0.01082   0.00365   0.00367  -0.00174  -0.00212
   5        5PX        -0.01434  -0.04134  -0.00105   0.00321   0.00385
   6        5PY         0.00287  -0.04124   0.02954  -0.01355   0.06006
   7        5PZ        -0.01477  -0.06754   0.05828   0.16141   0.00772
   8        6PX        -0.00304  -0.00556  -0.00460   0.00079   0.00327
   9        6PY        -0.00711  -0.01095  -0.01410  -0.00406   0.01044
  10        6PZ        -0.00057   0.01662  -0.02951   0.00946  -0.01307
  11        7PX        -0.00021  -0.00048  -0.00032  -0.00016  -0.00167
  12        7PY        -0.00106  -0.00115  -0.00184  -0.00098  -0.00097
  13        7PZ         0.00283   0.00163  -0.00288  -0.00408  -0.00248
  14        8D 0        0.02430  -0.02118   0.01051   0.00185  -0.01606
  15        8D+1        0.00258   0.01319  -0.00097  -0.01249   0.04652
  16        8D-1        0.00544   0.00933   0.00153  -0.00263   0.00457
  17        8D+2        0.00923   0.00958   0.00096   0.01843  -0.00987
  18        8D-2        0.00420   0.00875   0.00107   0.00839  -0.00455
  19        9D 0       -0.00044   0.00709  -0.01011  -0.00532  -0.00306
  20        9D+1       -0.00010   0.00032   0.00011  -0.00171   0.00398
  21        9D-1        0.00039   0.00208   0.00031  -0.00286   0.00088
  22        9D+2        0.00156   0.00009   0.00276   0.00063  -0.00064
  23        9D-2       -0.00016  -0.00148   0.00084   0.00077  -0.00353
  24 2   F  1S         -0.15706  -0.03437   0.04511   0.07703  -0.08400
  25        2S          0.10142  -0.01425  -0.15148  -0.00282  -0.04643
  26        3S          0.13248  -0.02058  -0.16423   0.00541  -0.03667
  27        4S          0.03154  -0.00588  -0.02607  -0.00251   0.00031
  28        5PX         0.03581  -0.19746  -0.16966   0.19051   0.14782
  29        5PY        -0.10635  -0.20968  -0.00984  -0.04322  -0.11434
  30        5PZ        -0.25264  -0.07179   0.01943   0.10842   0.40186
  31        6PX         0.00969  -0.12558  -0.11045   0.11249   0.08984
  32        6PY        -0.06350  -0.13997  -0.00895  -0.02611  -0.06631
  33        6PZ        -0.16008  -0.04945   0.01147   0.07152   0.25963
  34        7PX        -0.00525  -0.03619  -0.02892   0.02139   0.02252
  35        7PY        -0.01678  -0.04370  -0.00814  -0.00609  -0.01718
  36        7PZ        -0.04160  -0.01626   0.00073   0.01584   0.07197
  37        8D 0        0.00039  -0.00110  -0.00023   0.00343   0.00279
  38        8D+1        0.00278   0.00021  -0.00125  -0.00031  -0.00242
  39        8D-1       -0.00169  -0.00081   0.00065   0.00047   0.00203
  40        8D+2       -0.00041   0.00265   0.00077  -0.00321  -0.00089
  41        8D-2        0.00129   0.00038  -0.00137   0.00367   0.00260
  42        9D 0       -0.00262   0.00070  -0.00172   0.00234   0.00389
  43        9D+1        0.00375   0.00035  -0.00135  -0.00345  -0.00395
  44        9D-1       -0.00439  -0.00485  -0.00090   0.00050   0.00352
  45        9D+2        0.00225   0.00598   0.00339  -0.00117  -0.00413
  46        9D-2        0.00043   0.00073  -0.00078   0.00335   0.00143
  47 3   F  1S         -0.11969  -0.01420   0.08743   0.06726   0.01468
  48        2S          0.11429   0.05789  -0.19562   0.01263   0.12283
  49        3S          0.13855   0.03816  -0.21457   0.02291   0.14010
  50        4S          0.02560  -0.01415  -0.03847   0.00123   0.03101
  51        5PX        -0.16738  -0.05595  -0.00430  -0.28099   0.04648
  52        5PY         0.12561   0.35767   0.23891   0.00265   0.08153
  53        5PZ        -0.14338   0.04076   0.15528   0.30806  -0.27350
  54        6PX        -0.10163  -0.05570  -0.00619  -0.17215   0.03548
  55        6PY         0.08681   0.22514   0.15503   0.00803   0.05397
  56        6PZ        -0.08972   0.02345   0.10028   0.19767  -0.16994
  57        7PX        -0.02552  -0.02614  -0.00880  -0.03999   0.01647
  58        7PY         0.02854   0.06470   0.04240   0.00839   0.01633
  59        7PZ        -0.02062   0.00720   0.02746   0.04982  -0.04340
  60        8D 0        0.00038  -0.00224   0.00012   0.00470  -0.00197
  61        8D+1       -0.00218   0.00031   0.00160   0.00198  -0.00236
  62        8D-1       -0.00059   0.00114   0.00173   0.00185  -0.00158
  63        8D+2       -0.00182  -0.00049  -0.00100  -0.00335  -0.00088
  64        8D-2       -0.00005   0.00349   0.00189  -0.00412   0.00102
  65        9D 0       -0.00238  -0.00006  -0.00088   0.00236  -0.00245
  66        9D+1       -0.00315   0.00001   0.00189   0.00438   0.00008
  67        9D-1       -0.00013   0.00419   0.00359   0.00309   0.00136
  68        9D+2       -0.00385  -0.00667  -0.00415  -0.00448   0.00255
  69        9D-2        0.00164   0.00502   0.00260  -0.00197   0.00485
  70 4   F  1S          0.01674   0.10376  -0.12816  -0.04480   0.14362
  71        2S          0.26598  -0.27563   0.24786   0.02223   0.06058
  72        3S          0.30081  -0.28939   0.25464  -0.00559   0.06335
  73        4S          0.05942  -0.04522   0.04947  -0.04057   0.01954
  74        5PX         0.08275   0.18740   0.08490  -0.00992   0.16306
  75        5PY         0.02976   0.05387   0.03042  -0.03157   0.15075
  76        5PZ         0.07022  -0.00408  -0.10660   0.06567   0.07298
  77        6PX         0.05480   0.12252   0.05670  -0.00316   0.09607
  78        6PY         0.01876   0.03392   0.02105  -0.01502   0.09448
  79        6PZ         0.03326  -0.01049  -0.05664   0.06617   0.04514
  80        7PX         0.01730   0.03718   0.01832   0.00185   0.01663
  81        7PY         0.00402   0.00968   0.00607  -0.00050   0.02224
  82        7PZ        -0.00297  -0.00304  -0.01068   0.03011   0.01140
  83        8D 0       -0.00097  -0.00249   0.00579  -0.00044  -0.00007
  84        8D+1       -0.00044  -0.00120  -0.00044   0.00057  -0.00318
  85        8D-1       -0.00035  -0.00074   0.00038   0.00107  -0.00241
  86        8D+2        0.00022   0.00024   0.00002   0.00029   0.00003
  87        8D-2        0.00009   0.00010   0.00003   0.00033  -0.00074
  88        9D 0        0.00653  -0.00302   0.00552  -0.00962  -0.00260
  89        9D+1       -0.00211  -0.00404  -0.00239  -0.00181   0.00141
  90        9D-1       -0.00007  -0.00163  -0.00003  -0.00281  -0.00249
  91        9D+2       -0.00025  -0.00082   0.00021  -0.00051   0.00090
  92        9D-2       -0.00018  -0.00071   0.00014   0.00000  -0.00134
  93 5   F  1S         -0.15126   0.05206   0.07773   0.15102  -0.09305
  94        2S          0.13125   0.02497  -0.05415  -0.04136  -0.01488
  95        3S          0.16236   0.02464  -0.06638  -0.02606  -0.02352
  96        4S          0.03871   0.01320  -0.00825   0.00607  -0.02007
  97        5PX         0.09898   0.21499   0.11685   0.13401   0.00452
  98        5PY         0.10085   0.04426  -0.07455   0.27548   0.02992
  99        5PZ        -0.22406   0.01088   0.11872   0.05046   0.18958
 100        6PX         0.06572   0.14434   0.07704   0.08511   0.01095
 101        6PY         0.05389   0.02850  -0.04334   0.15995   0.02652
 102        6PZ        -0.13804   0.00744   0.07461   0.04157   0.11647
 103        7PX         0.02089   0.04727   0.02395   0.02293   0.00853
 104        7PY         0.01000   0.00748  -0.00669   0.03193   0.01058
 105        7PZ        -0.03286   0.00315   0.01842   0.01238   0.02690
 106        8D 0       -0.00052  -0.00070   0.00051   0.00332   0.00146
 107        8D+1        0.00035   0.00077   0.00043   0.00053   0.00036
 108        8D-1        0.00304   0.00018  -0.00291   0.00254  -0.00239
 109        8D+2        0.00091  -0.00005  -0.00163   0.00601   0.00023
 110        8D-2       -0.00039  -0.00043  -0.00074  -0.00143   0.00154
 111        9D 0       -0.00226   0.00173  -0.00008   0.00411   0.00241
 112        9D+1        0.00125   0.00314   0.00167   0.00089   0.00225
 113        9D-1        0.00381   0.00100  -0.00281  -0.00152  -0.00131
 114        9D+2        0.00114   0.00022  -0.00026   0.00552   0.00160
 115        9D-2       -0.00233  -0.00601  -0.00238  -0.00136  -0.00529
                           6         7         8         9        10
     Eigenvalues --     2.00000   2.00000   2.00000   2.00000   2.00000
   1 1   B  1S         -0.07959  -0.28643   0.05795   0.11261   0.10027
   2        2S          0.02801   0.07794   0.02261  -0.07573  -0.04167
   3        3S         -0.01586  -0.12382  -0.00215   0.07783  -0.00735
   4        4S          0.00005  -0.00714   0.00056   0.00307  -0.00271
   5        5PX         0.28662  -0.04868  -0.11957  -0.07352   0.08392
   6        5PY         0.04911   0.01052  -0.04312   0.06610  -0.05465
   7        5PZ        -0.01591   0.00577  -0.08621   0.02771  -0.14761
   8        6PX         0.06834  -0.00958  -0.00652  -0.00332   0.01468
   9        6PY         0.00997  -0.00937  -0.02510   0.02774  -0.00574
  10        6PZ         0.00198   0.00557  -0.01855  -0.00256  -0.04382
  11        7PX         0.00028   0.00015  -0.00106  -0.00005  -0.00015
  12        7PY        -0.00076  -0.00091  -0.00317   0.00218   0.00274
  13        7PZ         0.00042  -0.00206  -0.00010   0.00007  -0.00263
  14        8D 0       -0.00027  -0.02477  -0.02121   0.01171  -0.04199
  15        8D+1       -0.02659   0.01049   0.00136   0.01418  -0.02124
  16        8D-1       -0.00636   0.00074   0.01207   0.00961   0.00073
  17        8D+2        0.00466  -0.00864   0.02266  -0.03681  -0.03390
  18        8D-2       -0.03684   0.00198   0.05070   0.01752  -0.00562
  19        9D 0        0.00131   0.00090   0.00026  -0.00223  -0.00123
  20        9D+1       -0.00028   0.00067  -0.00529  -0.00133  -0.00100
  21        9D-1       -0.00026   0.00291   0.00145   0.00088   0.00179
  22        9D+2        0.00091   0.00123   0.00203  -0.00409  -0.00308
  23        9D-2        0.00078  -0.00091  -0.00367  -0.00330   0.00211
  24 2   F  1S         -0.01910   0.01792  -0.08397  -0.05954  -0.02881
  25        2S         -0.06537   0.13795  -0.19915  -0.15169  -0.00707
  26        3S         -0.12551   0.16620  -0.20166  -0.13624  -0.03795
  27        4S         -0.08462   0.05191  -0.03179  -0.00341  -0.04396
  28        5PX        -0.19037  -0.00389   0.14747   0.01987  -0.25450
  29        5PY         0.32600   0.01156   0.26619  -0.21250  -0.20525
  30        5PZ         0.03618  -0.01169  -0.10106  -0.30765   0.05344
  31        6PX        -0.08765  -0.01250   0.09136  -0.00326  -0.14029
  32        6PY         0.18298   0.01773   0.17620  -0.12276  -0.14550
  33        6PZ         0.00818  -0.00664  -0.05823  -0.19412   0.03397
  34        7PX        -0.01011  -0.00897   0.02884  -0.00689  -0.02544
  35        7PY         0.03046   0.01307   0.05017  -0.02774  -0.04684
  36        7PZ        -0.00833  -0.00511  -0.01005  -0.05480   0.01384
  37        8D 0       -0.00244  -0.00054  -0.00125   0.00126  -0.00281
  38        8D+1       -0.00252  -0.00089   0.00312   0.00374  -0.00086
  39        8D-1        0.00248   0.00053  -0.00074  -0.00276  -0.00110
  40        8D+2       -0.00110   0.00089  -0.00203   0.00011   0.00382
  41        8D-2       -0.00714  -0.00034   0.00040   0.00477  -0.00080
  42        9D 0       -0.00111  -0.00138   0.00279  -0.00006   0.00469
  43        9D+1        0.00283  -0.00103   0.00169   0.00675  -0.00132
  44        9D-1        0.00183   0.00193  -0.00068  -0.00354   0.00012
  45        9D+2       -0.00273   0.00140  -0.00656  -0.00035   0.00381
  46        9D-2       -0.00008  -0.00623  -0.00208   0.00255   0.00492
  47 3   F  1S         -0.06215  -0.07138  -0.01128   0.04205   0.06255
  48        2S          0.13083   0.11904   0.15386   0.03242  -0.01730
  49        3S          0.20864   0.12875   0.12379   0.02765  -0.01663
  50        4S          0.11406   0.02251  -0.02177  -0.00123  -0.00155
  51        5PX        -0.28402   0.06018   0.26265   0.02961   0.07864
  52        5PY        -0.18616  -0.02910   0.07491  -0.21414  -0.25654
  53        5PZ         0.00372   0.26197   0.10701   0.09615   0.01104
  54        6PX        -0.13910   0.03573   0.14204   0.01408   0.04884
  55        6PY        -0.09186  -0.02134   0.03085  -0.13921  -0.15812
  56        6PZ         0.01954   0.17214   0.05702   0.06636   0.00978
  57        7PX        -0.01776   0.00914   0.03021   0.00266   0.00872
  58        7PY        -0.00869  -0.00851   0.00055  -0.04015  -0.03532
  59        7PZ         0.01857   0.04972   0.01236   0.02432   0.00737
  60        8D 0        0.00227  -0.00106  -0.00223   0.00061  -0.00067
  61        8D+1       -0.00270   0.00298   0.00274   0.00025  -0.00067
  62        8D-1       -0.00177   0.00155   0.00173  -0.00057  -0.00170
  63        8D+2       -0.00141   0.00094   0.00268   0.00070   0.00352
  64        8D-2       -0.00540   0.00186   0.00476  -0.00158  -0.00312
  65        9D 0       -0.00040   0.00159  -0.00292   0.00135   0.00387
  66        9D+1        0.00394   0.00790   0.00108   0.00286  -0.00135
  67        9D-1        0.00036   0.00474   0.00005   0.00263  -0.00079
  68        9D+2        0.00232   0.00177   0.00359   0.00009   0.00199
  69        9D-2        0.00382   0.00147   0.00456  -0.00485  -0.00167
  70 4   F  1S         -0.00627  -0.10053   0.21962   0.10674  -0.08882
  71        2S         -0.03307  -0.00822   0.01329   0.01674   0.07734
  72        3S         -0.03381   0.00384   0.02919   0.00273   0.13203
  73        4S         -0.00432   0.01346   0.03432  -0.01457   0.07543
  74        5PX         0.22209   0.18639  -0.06884   0.26427  -0.09237
  75        5PY         0.07642   0.04848   0.14978   0.08932   0.01361
  76        5PZ        -0.03415   0.01254   0.10786  -0.01779   0.32713
  77        6PX         0.14084   0.12268  -0.03998   0.17497  -0.05983
  78        6PY         0.05043   0.02918   0.09658   0.05264   0.00098
  79        6PZ        -0.02310   0.00232   0.05146  -0.00230   0.17325
  80        7PX         0.02977   0.03918  -0.00726   0.05540  -0.01950
  81        7PY         0.01356   0.00731   0.02714   0.00909  -0.00181
  82        7PZ        -0.00564   0.00194   0.00414   0.00208   0.02851
  83        8D 0        0.00056   0.00123  -0.00235   0.00012  -0.00613
  84        8D+1       -0.00493  -0.00089   0.00233  -0.00112   0.00008
  85        8D-1       -0.00092  -0.00065  -0.00127  -0.00240  -0.00115
  86        8D+2        0.00021  -0.00013   0.00063  -0.00052  -0.00066
  87        8D-2       -0.00112   0.00002   0.00132   0.00037  -0.00007
  88        9D 0        0.00121  -0.00134   0.00075  -0.00114  -0.00256
  89        9D+1       -0.00671  -0.00393  -0.00116  -0.00671   0.00048
  90        9D-1       -0.00287  -0.00006  -0.00394   0.00141   0.00386
  91        9D+2        0.00091   0.00016  -0.00080   0.00118   0.00016
  92        9D-2        0.00379  -0.00023  -0.00309  -0.00105   0.00108
  93 5   F  1S         -0.02668   0.04398   0.29901  -0.14218   0.18962
  94        2S         -0.01913   0.25348   0.01390  -0.14553   0.09715
  95        3S         -0.03145   0.27763   0.00751  -0.16973   0.09255
  96        4S         -0.01606   0.06446   0.01378  -0.06210   0.00463
  97        5PX         0.10659  -0.23738   0.10737  -0.15792   0.22250
  98        5PY        -0.08808   0.05262   0.06584  -0.03478  -0.03362
  99        5PZ        -0.03504   0.19688  -0.04286   0.13286   0.11763
 100        6PX         0.06194  -0.15389   0.06615  -0.10302   0.14166
 101        6PY        -0.04783   0.02968   0.04181  -0.01208  -0.01770
 102        6PZ        -0.02669   0.12762  -0.02516   0.07482   0.07207
 103        7PX         0.00274  -0.04369   0.01610  -0.03008   0.03696
 104        7PY        -0.00799   0.00255   0.01198   0.00232  -0.00593
 105        7PZ        -0.01102   0.03516  -0.00348   0.01290   0.02377
 106        8D 0       -0.00093   0.00069  -0.00105   0.00216  -0.00039
 107        8D+1        0.00126  -0.00100   0.00058  -0.00056   0.00103
 108        8D-1       -0.00089  -0.00376   0.00086  -0.00102  -0.00067
 109        8D+2       -0.00149  -0.00125   0.00011   0.00063  -0.00071
 110        8D-2       -0.00460   0.00235  -0.00030   0.00194  -0.00305
 111        9D 0       -0.00017   0.00167   0.00234  -0.00124  -0.00015
 112        9D+1        0.00414  -0.00349  -0.00273  -0.00355   0.00325
 113        9D-1        0.00124  -0.00701   0.00319   0.00161  -0.00162
 114        9D+2        0.00030  -0.00392   0.00159   0.00165  -0.00547
 115        9D-2       -0.00006   0.00398  -0.00146   0.00227  -0.00258
                          11        12        13        14        15
     Eigenvalues --     2.00000   2.00000   2.00000   2.00000   2.00000
   1 1   B  1S          0.22047  -0.01588   0.24629   0.08125   0.09986
   2        2S         -0.08482  -0.05893   0.04404  -0.03479   0.04057
   3        3S          0.07820   0.03939  -0.03651   0.02356  -0.02380
   4        4S          0.00213   0.00033  -0.00056   0.00018  -0.00088
   5        5PX         0.05963   0.01810   0.00823  -0.04732  -0.01205
   6        5PY        -0.10855   0.12913   0.10219   0.19910   0.12549
   7        5PZ        -0.07702  -0.01327  -0.13898  -0.11562   0.09834
   8        6PX         0.00249  -0.00346  -0.00693  -0.01365   0.01678
   9        6PY        -0.03695  -0.00388   0.03316   0.02957   0.03768
  10        6PZ        -0.02106   0.00470  -0.03778  -0.02228   0.02456
  11        7PX         0.00021   0.00018   0.00124  -0.00152   0.00240
  12        7PY        -0.00227  -0.00459  -0.00036   0.00105   0.00172
  13        7PZ         0.00020   0.00096  -0.00213  -0.00032   0.00177
  14        8D 0       -0.01330  -0.00239  -0.03662  -0.00749   0.03713
  15        8D+1        0.01785  -0.01640  -0.01612   0.01434   0.00065
  16        8D-1        0.01659   0.02639  -0.01713  -0.06102  -0.00472
  17        8D+2        0.02544  -0.01831  -0.00235  -0.02319  -0.02568
  18        8D-2       -0.03262  -0.00241  -0.01586   0.01553  -0.00987
  19        9D 0       -0.00099  -0.00056   0.00035   0.00091  -0.00032
  20        9D+1        0.00482  -0.00048   0.00062   0.00046  -0.00138
  21        9D-1        0.00066   0.00757  -0.00190   0.00093  -0.00002
  22        9D+2        0.00151   0.00273  -0.00108   0.00608  -0.00150
  23        9D-2        0.00070   0.00255   0.00257  -0.00028  -0.00369
  24 2   F  1S          0.11892   0.20647  -0.07019   0.09725   0.20768
  25        2S         -0.01598   0.01968   0.20913  -0.09131  -0.02305
  26        3S         -0.05790   0.02379   0.22501  -0.07218  -0.00799
  27        4S         -0.05650   0.00875   0.04516   0.01777   0.02645
  28        5PX        -0.10497   0.03890  -0.03123   0.25499   0.00100
  29        5PY         0.10987   0.06778   0.09512   0.00392  -0.16128
  30        5PZ         0.02665  -0.14087  -0.04140  -0.04638  -0.04292
  31        6PX        -0.04254   0.02120  -0.01981   0.14170  -0.01549
  32        6PY         0.06014   0.04913   0.05755   0.01001  -0.09590
  33        6PZ         0.00367  -0.08375  -0.02478  -0.02363  -0.02313
  34        7PX         0.00061   0.00149  -0.01171   0.02816  -0.01502
  35        7PY         0.01548   0.01481   0.01356   0.00174  -0.02550
  36        7PZ        -0.00488  -0.01585  -0.00046  -0.00105  -0.00448
  37        8D 0       -0.00043  -0.00075  -0.00229   0.00144   0.00158
  38        8D+1       -0.00096   0.00282   0.00055   0.00287   0.00056
  39        8D-1        0.00100  -0.00101  -0.00026  -0.00166  -0.00073
  40        8D+2        0.00171  -0.00183  -0.00076  -0.00508  -0.00053
  41        8D-2       -0.00141   0.00027  -0.00290   0.00184   0.00168
  42        9D 0       -0.00078  -0.00145  -0.00140   0.00269  -0.00239
  43        9D+1        0.00407   0.00027  -0.00040   0.00507  -0.00011
  44        9D-1       -0.00240   0.00250   0.00267   0.00063   0.00054
  45        9D+2       -0.00202  -0.00313   0.00310  -0.00035   0.00198
  46        9D-2       -0.00132  -0.00327  -0.00627   0.00239   0.00175
  47 3   F  1S          0.07896   0.14985  -0.04920   0.35485  -0.08506
  48        2S         -0.17969  -0.10926  -0.02436  -0.04772   0.10559
  49        3S         -0.20719  -0.10521  -0.02044  -0.05705   0.14087
  50        4S         -0.06011  -0.00976   0.00494  -0.00554   0.06211
  51        5PX         0.00701  -0.05010  -0.13732  -0.09036  -0.16092
  52        5PY         0.07097  -0.00643   0.13412   0.06677  -0.04814
  53        5PZ        -0.09777  -0.12851   0.11937  -0.01284  -0.13465
  54        6PX        -0.00402  -0.02274  -0.08591  -0.05122  -0.08657
  55        6PY         0.03913   0.00615   0.08621   0.03915  -0.02115
  56        6PZ        -0.05892  -0.07922   0.07999  -0.00616  -0.08166
  57        7PX        -0.00856  -0.00083  -0.02043  -0.00781  -0.01328
  58        7PY         0.00724   0.00384   0.01958   0.00488  -0.00331
  59        7PZ        -0.00946  -0.01966   0.02757   0.00323  -0.02125
  60        8D 0       -0.00114   0.00065  -0.00068   0.00014   0.00115
  61        8D+1       -0.00266  -0.00283  -0.00054  -0.00152  -0.00113
  62        8D-1       -0.00150  -0.00089   0.00051  -0.00123  -0.00039
  63        8D+2       -0.00019  -0.00166  -0.00256  -0.00414  -0.00202
  64        8D-2       -0.00099  -0.00214   0.00093   0.00089  -0.00073
  65        9D 0        0.00331  -0.00065   0.00349   0.00090  -0.00171
  66        9D+1       -0.00026  -0.00313  -0.00037  -0.00334  -0.00201
  67        9D-1       -0.00318   0.00009   0.00257   0.00239   0.00087
  68        9D+2       -0.00192  -0.00379  -0.00369   0.00187  -0.00192
  69        9D-2       -0.00325   0.00228   0.00178  -0.00144  -0.00098
  70 4   F  1S         -0.06424  -0.27567   0.43616  -0.28774   0.05394
  71        2S          0.02811  -0.04049   0.02436  -0.01421   0.03740
  72        3S          0.05255  -0.03448   0.04605   0.01873   0.00567
  73        4S          0.02735  -0.01519   0.05895   0.02533  -0.03466
  74        5PX         0.23707  -0.15630  -0.08438   0.11229  -0.09758
  75        5PY         0.06974   0.43099   0.09386  -0.18222   0.05283
  76        5PZ         0.17145  -0.02571   0.21753   0.17590  -0.24078
  77        6PX         0.14892  -0.10011  -0.05299   0.07304  -0.06436
  78        6PY         0.04578   0.27266   0.05620  -0.11967   0.03428
  79        6PZ         0.09238  -0.01684   0.11331   0.09248  -0.12732
  80        7PX         0.03880  -0.02767  -0.01158   0.02176  -0.01913
  81        7PY         0.01583   0.06829   0.00814  -0.03838   0.00559
  82        7PZ         0.01450  -0.00253   0.01579   0.01678  -0.02305
  83        8D 0       -0.00455  -0.00007  -0.00349  -0.00384   0.00547
  84        8D+1       -0.00343   0.00144   0.00104  -0.00069   0.00101
  85        8D-1       -0.00005  -0.00662  -0.00259  -0.00069  -0.00116
  86        8D+2        0.00049   0.00035   0.00021  -0.00057  -0.00032
  87        8D-2       -0.00107   0.00006  -0.00016   0.00023  -0.00012
  88        9D 0       -0.00050   0.00057  -0.00222  -0.00078   0.00287
  89        9D+1       -0.00209   0.00246   0.00141  -0.00227   0.00297
  90        9D-1       -0.00208  -0.00667  -0.00291   0.00227  -0.00022
  91        9D+2       -0.00173   0.00184   0.00150   0.00341   0.00223
  92        9D-2        0.00154   0.00047   0.00130  -0.00128   0.00038
  93 5   F  1S          0.37976  -0.14775   0.00223   0.00488   0.70179
  94        2S         -0.02272   0.06359  -0.12437   0.11978  -0.03158
  95        3S         -0.02001   0.04948  -0.17552   0.06806  -0.07846
  96        4S          0.01694  -0.01295  -0.07674  -0.05427  -0.03134
  97        5PX        -0.30243   0.05754  -0.08667   0.02249  -0.05321
  98        5PY         0.16656   0.09854  -0.19672  -0.33794  -0.14505
  99        5PZ        -0.15474   0.15429   0.17165   0.01377   0.01685
 100        6PX        -0.19320   0.03523  -0.05718   0.01580  -0.03312
 101        6PY         0.09536   0.07758  -0.09357  -0.17096  -0.07779
 102        6PZ        -0.09141   0.08633   0.09770  -0.00777  -0.00170
 103        7PX        -0.05421   0.00884  -0.01542   0.00595  -0.00748
 104        7PY         0.02082   0.02843  -0.00818  -0.02615  -0.01817
 105        7PZ        -0.01669   0.01414   0.02155  -0.00600  -0.00961
 106        8D 0       -0.00053   0.00217  -0.00187  -0.00351   0.00090
 107        8D+1       -0.00117   0.00015  -0.00067   0.00021  -0.00043
 108        8D-1        0.00436  -0.00287  -0.00345  -0.00377  -0.00265
 109        8D+2        0.00279  -0.00012  -0.00338  -0.00600  -0.00209
 110        8D-2        0.00242  -0.00109   0.00031   0.00046   0.00090
 111        9D 0        0.00156   0.00150   0.00389  -0.00036  -0.00321
 112        9D+1       -0.00114   0.00045  -0.00056  -0.00060   0.00013
 113        9D-1        0.00544   0.00357   0.00113  -0.00139   0.00141
 114        9D+2        0.00246   0.00452   0.00212  -0.00121   0.00155
 115        9D-2        0.00392   0.00059   0.00328  -0.00166   0.00075
                          16        17        18        19        20
     Eigenvalues --     2.00000   2.00000   2.00000   2.00000   2.00000
   1 1   B  1S          0.70617  -0.02142  -0.18640   0.28830  -0.11792
   2        2S          0.12330   0.04170  -0.00148   0.05853   0.00297
   3        3S         -0.10826  -0.04462   0.02168  -0.06766   0.01111
   4        4S         -0.00104  -0.00188  -0.00001  -0.00051  -0.00051
   5        5PX         0.02928  -0.03566   0.05740  -0.01019  -0.01922
   6        5PY        -0.02233  -0.10276   0.00211   0.01094  -0.04130
   7        5PZ         0.08227  -0.04638   0.04932   0.03112   0.00220
   8        6PX         0.00386  -0.00283  -0.03612  -0.02188   0.00218
   9        6PY        -0.02108   0.01133   0.00948   0.01195  -0.01082
  10        6PZ         0.01612  -0.02180   0.01862   0.00345   0.00402
  11        7PX        -0.00072  -0.00047  -0.00586  -0.00200   0.00114
  12        7PY        -0.00096   0.00092   0.00071   0.00036   0.00016
  13        7PZ         0.00053  -0.00071   0.00136  -0.00002   0.00037
  14        8D 0        0.01858  -0.01270   0.01497   0.00677   0.00148
  15        8D+1        0.00013   0.00663   0.00257   0.00388  -0.00070
  16        8D-1        0.00926   0.01899   0.00844   0.00332  -0.00088
  17        8D+2       -0.00072   0.02288  -0.00422   0.00180   0.00533
  18        8D-2        0.00149   0.01298   0.01759   0.00671  -0.00477
  19        9D 0       -0.00191  -0.00032   0.00123  -0.00055   0.00072
  20        9D+1        0.00014  -0.00075   0.00419   0.00192  -0.00042
  21        9D-1        0.00225  -0.00575  -0.00037  -0.00155  -0.00006
  22        9D+2        0.00209  -0.00651  -0.00188  -0.00165   0.00056
  23        9D-2        0.00054  -0.00142   0.00912   0.00343  -0.00120
  24 2   F  1S          0.21093   0.35987  -0.05422  -0.65020   0.21445
  25        2S         -0.02649   0.10166   0.19504   0.14222  -0.01364
  26        3S         -0.04164   0.09038   0.21127   0.18395  -0.02469
  27        4S          0.00279   0.01766   0.04898   0.05384  -0.01029
  28        5PX        -0.05266  -0.04102   0.15345   0.07515  -0.06730
  29        5PY         0.05648   0.04205   0.04500  -0.04770  -0.12521
  30        5PZ        -0.02807  -0.04304  -0.10479   0.08058   0.15386
  31        6PX        -0.02793  -0.02021   0.09854   0.04116  -0.04123
  32        6PY         0.03435   0.02456   0.03053  -0.02695  -0.08372
  33        6PZ        -0.02207  -0.02929  -0.06772   0.05586   0.10012
  34        7PX        -0.00896  -0.00394   0.02692   0.00585  -0.00902
  35        7PY         0.01283   0.00754   0.00872  -0.00569  -0.02454
  36        7PZ        -0.00987  -0.00621  -0.02108   0.01936   0.02982
  37        8D 0       -0.00031  -0.00144  -0.00014   0.00030   0.00037
  38        8D+1       -0.00121  -0.00025   0.00016  -0.00090  -0.00124
  39        8D-1        0.00095   0.00045   0.00061   0.00070   0.00013
  40        8D+2        0.00080   0.00196  -0.00097  -0.00005   0.00131
  41        8D-2       -0.00156  -0.00121  -0.00093  -0.00022   0.00058
  42        9D 0       -0.00063  -0.00012  -0.00002  -0.00013   0.00103
  43        9D+1        0.00129   0.00012   0.00189  -0.00319  -0.00406
  44        9D-1       -0.00087  -0.00203  -0.00012   0.00127  -0.00006
  45        9D+2       -0.00176  -0.00038  -0.00391   0.00011   0.00291
  46        9D-2        0.00138  -0.00237   0.00039  -0.00061   0.00241
  47 3   F  1S          0.18686   0.17540   0.35457  -0.00759   0.54108
  48        2S         -0.00159   0.20140  -0.13296  -0.02378   0.00287
  49        3S         -0.00367   0.18813  -0.14612  -0.02581  -0.02328
  50        4S          0.01938   0.01817  -0.02833   0.00045  -0.00943
  51        5PX         0.06553   0.11957   0.15492   0.06091  -0.01156
  52        5PY        -0.01733   0.08846  -0.09884  -0.03470  -0.04822
  53        5PZ        -0.03000  -0.00452  -0.06914   0.11790   0.17574
  54        6PX         0.04305   0.06077   0.10462   0.03872  -0.01404
  55        6PY        -0.00871   0.04828  -0.05974  -0.02457  -0.03642
  56        6PZ        -0.02049  -0.00760  -0.04485   0.07709   0.11355
  57        7PX         0.01649   0.01144   0.03023   0.01385  -0.00740
  58        7PY         0.00447   0.01207  -0.01453  -0.00879  -0.01266
  59        7PZ        -0.00695  -0.00104  -0.01438   0.02382   0.03330
  60        8D 0       -0.00002  -0.00223   0.00060   0.00008   0.00020
  61        8D+1        0.00086   0.00141  -0.00060   0.00121   0.00143
  62        8D-1        0.00037   0.00106  -0.00099   0.00061   0.00072
  63        8D+2        0.00136   0.00262   0.00164   0.00059   0.00040
  64        8D-2        0.00049   0.00330  -0.00166   0.00049   0.00015
  65        9D 0       -0.00150  -0.00191  -0.00296  -0.00017   0.00249
  66        9D+1        0.00003   0.00109  -0.00018   0.00317   0.00334
  67        9D-1       -0.00088  -0.00039  -0.00118   0.00107   0.00055
  68        9D+2        0.00051   0.00089   0.00348   0.00105  -0.00044
  69        9D-2       -0.00035   0.00405   0.00086  -0.00075  -0.00370
  70 4   F  1S          0.05984  -0.46414   0.31123  -0.41148   0.27896
  71        2S          0.08685   0.09612  -0.03713   0.03957  -0.00912
  72        3S          0.06712   0.13619  -0.06608   0.04851  -0.01972
  73        4S          0.00334   0.04506  -0.03351   0.00678  -0.00566
  74        5PX         0.05921   0.04834   0.20404   0.05717  -0.04270
  75        5PY        -0.08437  -0.01882  -0.05547   0.21489   0.23291
  76        5PZ        -0.16493   0.07394  -0.11487  -0.09532  -0.03944
  77        6PX         0.03832   0.03192   0.13338   0.03781  -0.02752
  78        6PY        -0.05319  -0.01370  -0.03664   0.14227   0.15672
  79        6PZ        -0.08490   0.03279  -0.06008  -0.05568  -0.02490
  80        7PX         0.00962   0.00971   0.03712   0.01230  -0.00647
  81        7PY        -0.01407  -0.00443  -0.01214   0.04284   0.05337
  82        7PZ        -0.02015   0.00236  -0.00876  -0.01457  -0.00701
  83        8D 0        0.00508  -0.00081   0.00191   0.00255   0.00027
  84        8D+1       -0.00081  -0.00004  -0.00259  -0.00046   0.00064
  85        8D-1        0.00156   0.00116   0.00042  -0.00114  -0.00072
  86        8D+2       -0.00021   0.00039  -0.00017   0.00035   0.00041
  87        8D-2       -0.00004   0.00027   0.00005   0.00005  -0.00003
  88        9D 0        0.00076   0.00301   0.00040   0.00255   0.00136
  89        9D+1       -0.00165  -0.00124  -0.00572  -0.00128   0.00127
  90        9D-1        0.00257   0.00071   0.00202  -0.00548  -0.00657
  91        9D+2       -0.00101  -0.00232  -0.00065   0.00153   0.00169
  92        9D-2        0.00009  -0.00091  -0.00068  -0.00050   0.00014
  93 5   F  1S         -0.26247   0.06666   0.25456   0.11631  -0.14362
  94        2S          0.15057  -0.24817  -0.04539  -0.05276   0.04035
  95        3S          0.18369  -0.25143  -0.05334  -0.06015   0.05766
  96        4S          0.06668  -0.03277  -0.00810  -0.00254   0.01770
  97        5PX         0.04154   0.03879   0.23174   0.02916  -0.06071
  98        5PY         0.09185   0.03394   0.04484  -0.11026  -0.11000
  99        5PZ         0.05972   0.01138   0.05695  -0.15627  -0.33174
 100        6PX         0.02610   0.02569   0.14859   0.01924  -0.03861
 101        6PY         0.04968   0.01121   0.02609  -0.07216  -0.08018
 102        6PZ         0.04271   0.01460   0.03705  -0.10476  -0.21423
 103        7PX         0.00543   0.00779   0.03894   0.00648  -0.00917
 104        7PY         0.00315   0.00368   0.00717  -0.02428  -0.02720
 105        7PZ         0.01653   0.00861   0.00897  -0.03373  -0.06343
 106        8D 0        0.00107  -0.00024   0.00112  -0.00053  -0.00155
 107        8D+1        0.00037   0.00019   0.00154   0.00021  -0.00043
 108        8D-1       -0.00143   0.00206  -0.00008   0.00015   0.00233
 109        8D+2       -0.00019   0.00163   0.00081  -0.00095  -0.00059
 110        8D-2       -0.00074   0.00017  -0.00292  -0.00022   0.00079
 111        9D 0       -0.00041   0.00206  -0.00007  -0.00287  -0.00506
 112        9D+1        0.00050  -0.00025   0.00182  -0.00016  -0.00051
 113        9D-1       -0.00306   0.00222  -0.00065   0.00404   0.00485
 114        9D+2        0.00017   0.00176   0.00169  -0.00157  -0.00548
 115        9D-2       -0.00081  -0.00133  -0.00442  -0.00073   0.00119
                          21        22        23        24        25
     Eigenvalues --     2.00000   0.00000   0.00000   0.00000   0.00000
   1 1   B  1S          0.07782   0.03656   0.02199   0.21031  -0.05979
   2        2S         -0.00165   0.74019   0.43167   2.03741  -0.92210
   3        3S          0.00026  -1.64187   0.88094  -3.47652  -2.57888
   4        4S          0.00040  -0.25613   0.01064  -0.12803  -0.02960
   5        5PX        -0.02471   0.45092  -0.34485   0.20379  -0.56359
   6        5PY         0.02751  -0.36793   0.40871   0.10196   0.00009
   7        5PZ        -0.02509   0.07519   0.59035   0.25688  -0.14661
   8        6PX        -0.01983  -1.48686   0.25727   0.78650  -0.02376
   9        6PY         0.00581 -12.90859  -0.89742   0.81988  -3.70926
  10        6PZ        -0.00648   0.20736   0.82396   0.75465   2.40473
  11        7PX        -0.00319   0.00805   0.05573   0.19052   0.25890
  12        7PY         0.00062   0.26266   0.12332  -0.14721   0.11289
  13        7PZ        -0.00018  -0.08498   0.23358  -0.06620   0.01886
  14        8D 0       -0.00252   0.05401   0.00472   0.24070   0.07744
  15        8D+1        0.01234  -0.09741   0.63275  -0.25711  -0.10123
  16        8D-1       -0.01134   0.20964  -0.77736   0.39966   0.06955
  17        8D+2       -0.00619   0.56441   0.53561  -0.33907  -0.08970
  18        8D-2        0.02515  -0.61944   0.27220  -0.14952   0.50261
  19        9D 0       -0.00008  -0.97904   0.45987  -0.21415  -0.23104
  20        9D+1        0.00091  -0.11868   0.04250  -1.49390   0.51428
  21        9D-1       -0.00008   2.41893  -0.02814   2.56405   1.25849
  22        9D+2        0.00062   2.64763  -0.10853  -2.90895   0.60582
  23        9D-2        0.00203  -0.25532  -0.04255   0.80714   0.25809
  24 2   F  1S          0.48382   0.01936  -0.01019   0.01952  -0.00553
  25        2S         -0.00597   0.16441  -0.34451   0.39985  -0.67154
  26        3S         -0.01207  -0.68899   0.86795  -0.95551   1.34455
  27        4S          0.01941  -7.88962  -0.73072   2.25134  -1.38592
  28        5PX         0.15112  -0.10983   0.16097  -0.16317   0.13689
  29        5PY        -0.06345  -0.11364  -0.01873   0.11190  -0.05838
  30        5PZ         0.06734   0.04852   0.03045   0.05961  -0.06074
  31        6PX         0.09076   0.88081  -0.71097   0.68602  -0.71308
  32        6PY        -0.03835  -0.11636   0.04766  -0.02818   0.63263
  33        6PZ         0.04761  -0.35115  -0.26821   0.22963   0.16933
  34        7PX         0.02035   1.73565   0.56985   0.23937   0.30566
  35        7PY        -0.01042  -0.81530  -0.08871   1.31071  -0.59818
  36        7PZ         0.01724  -0.48857   0.18830   1.47631  -0.39694
  37        8D 0        0.00075   0.05803   0.02873  -0.04576  -0.05410
  38        8D+1        0.00045   0.01051  -0.00469  -0.05486   0.16887
  39        8D-1       -0.00016  -0.01466  -0.01981  -0.01720   0.02544
  40        8D+2       -0.00137   0.10138  -0.10650  -0.07325  -0.15536
  41        8D-2        0.00135   0.07605   0.02664  -0.08617  -0.01206
  42        9D 0        0.00367   0.08675  -0.27400   0.31241  -0.17127
  43        9D+1       -0.00005   0.07758   0.13050  -0.02418  -0.12228
  44        9D-1       -0.00015  -0.09709  -0.14573   0.02256   0.01892
  45        9D+2       -0.00211  -0.20744   0.36354  -0.35904   0.07633
  46        9D-2        0.00393   0.09517  -0.08504   0.01883  -0.26755
  47 3   F  1S         -0.59739  -0.03291  -0.00261  -0.00583  -0.01621
  48        2S         -0.03303   0.05120   0.17138   0.03561   0.14690
  49        3S         -0.02272   0.42421  -0.42142   0.23483  -0.11455
  50        4S         -0.02089  -9.62767   0.13230   1.88524  -2.19952
  51        5PX         0.12233   0.05303  -0.10170   0.10080  -0.00391
  52        5PY        -0.06384  -0.06133  -0.05417  -0.04900   0.02450
  53        5PZ         0.11033   0.05248  -0.02677   0.02100  -0.02490
  54        6PX         0.07550  -0.36289  -0.04476  -0.27842  -0.11543
  55        6PY        -0.04550  -0.06090  -0.17046   0.45544   0.17819
  56        6PZ         0.07140  -0.11997  -0.14270   0.08296  -0.22375
  57        7PX         0.01786  -1.74314   0.16424  -0.85866  -0.56631
  58        7PY        -0.01626  -1.32200  -0.44712   2.08808  -0.02138
  59        7PZ         0.02191  -0.74244   0.47077   0.15167   0.09386
  60        8D 0       -0.00016  -0.03718   0.09840  -0.12621   0.07176
  61        8D+1        0.00091   0.01425  -0.00193  -0.04038  -0.06905
  62        8D-1       -0.00015   0.07883  -0.10619  -0.01683  -0.06060
  63        8D+2        0.00073  -0.00502  -0.17150   0.17174  -0.05255
  64        8D-2        0.00047   0.06239   0.05831  -0.05356   0.06486
  65        9D 0       -0.00083  -0.00563  -0.01864   0.15964  -0.08478
  66        9D+1        0.00284   0.10040  -0.14047  -0.05013  -0.07494
  67        9D-1        0.00167  -0.11065   0.04809  -0.16467   0.08222
  68        9D+2        0.00401   0.15367   0.24372  -0.32036  -0.25098
  69        9D-2       -0.00009   0.06732  -0.26436  -0.05659   0.04786
  70 4   F  1S          0.01421  -0.01253  -0.00848   0.00653   0.00149
  71        2S          0.00652   0.12993   0.47147   0.30590  -0.39754
  72        3S          0.01205  -0.04836  -0.58613  -0.61055   0.55708
  73        4S          0.00990   1.90158  -1.64286  -0.57107  -0.86506
  74        5PX         0.16122  -0.06113   0.08320  -0.02340   0.10707
  75        5PY         0.13099  -0.13817  -0.00828   0.05036   0.06940
  76        5PZ         0.02311   0.07000  -0.01327  -0.10799   0.00160
  77        6PX         0.10552   0.04999  -0.33107   0.21120  -0.12273
  78        6PY         0.08687   0.46824   0.08918  -0.41277   0.08146
  79        6PZ         0.00996  -0.00468   0.43366   0.71032  -0.24433
  80        7PX         0.02959   0.47210   0.03716   0.46202  -0.32030
  81        7PY         0.02738  -0.35059   1.20838  -1.48094  -0.59286
  82        7PZ        -0.00076  -0.43636   0.23532   0.19746  -0.01428
  83        8D 0       -0.00060   0.01804   0.12941   0.06600  -0.15048
  84        8D+1       -0.00126   0.21064  -0.08701  -0.01054  -0.14451
  85        8D-1       -0.00108   0.03113   0.15039   0.08696   0.00466
  86        8D+2        0.00008   0.02572   0.00298  -0.04868   0.06078
  87        8D-2        0.00036   0.00846   0.07500  -0.01553   0.10322
  88        9D 0        0.00056  -0.07255  -0.37741  -0.45335   0.45676
  89        9D+1       -0.00427  -0.07805   0.23907  -0.02614  -0.03001
  90        9D-1       -0.00361  -0.16219  -0.57866   0.25418   0.12174
  91        9D+2        0.00189  -0.11408   0.02732   0.15366   0.12893
  92        9D-2       -0.00163   0.08507  -0.06031   0.02094  -0.18463
  93 5   F  1S         -0.06953  -0.00425   0.01962   0.00728  -0.01866
  94        2S          0.01204   0.07516   0.05938   0.07622  -0.13734
  95        3S          0.00478   0.07984  -0.39239  -0.08893   0.43525
  96        4S         -0.01083  16.83099   1.23386  -0.46177   6.66479
  97        5PX         0.15185  -0.10225   0.01464   0.04029   0.08080
  98        5PY        -0.14691   0.14792  -0.13064  -0.02339   0.04835
  99        5PZ        -0.15658  -0.10739  -0.27336   0.15828   0.17267
 100        6PX         0.09863   0.24132   0.10843  -0.18032  -0.31263
 101        6PY        -0.08803  -0.85569   0.50427   0.05424  -0.50819
 102        6PZ        -0.10660   0.64655   0.62953  -0.53771  -0.01283
 103        7PX         0.02680   0.55911  -0.38842  -1.12076   0.19856
 104        7PY        -0.02283  -4.04101  -0.72447  -0.56360  -2.05695
 105        7PZ        -0.03368   1.80575  -0.70882  -1.59680   0.09124
 106        8D 0       -0.00138  -0.06965   0.13667   0.13311   0.13859
 107        8D+1        0.00094  -0.09756   0.08434  -0.03973   0.15226
 108        8D-1        0.00018  -0.00433  -0.07462  -0.10985  -0.02454
 109        8D+2       -0.00163  -0.06136   0.02559  -0.04942   0.02256
 110        8D-2       -0.00096   0.13561  -0.03892  -0.04830   0.02389
 111        9D 0       -0.00285   0.10394   0.04929  -0.08397  -0.01011
 112        9D+1        0.00050   0.15092  -0.14627   0.07095  -0.18814
 113        9D-1        0.00293  -0.06628  -0.00768   0.18278  -0.26867
 114        9D+2       -0.00301  -0.04433   0.12198   0.21657  -0.02518
 115        9D-2       -0.00394  -0.20917  -0.07263   0.19232   0.03107
                          26        27        28        29        30
     Eigenvalues --     0.00000   0.00000   0.00000   0.00000   0.00000
   1 1   B  1S          0.00467   0.11486   0.00055  -0.10076   0.00106
   2        2S         -0.05542   1.26509  -0.82312  -1.38045  -0.17989
   3        3S          0.29580  -1.94197   3.09382  -2.68136  -0.53345
   4        4S         -0.36351   0.03542   0.10933   0.12535   0.03418
   5        5PX         0.92090  -0.54711   0.27497   0.35976   0.40311
   6        5PY        -0.25310  -0.31626   0.36345  -0.05782  -0.14908
   7        5PZ         0.43898   0.13653   0.58548  -0.40629  -0.09673
   8        6PX         1.00165   1.06877   0.17120   1.50475   0.06045
   9        6PY        -0.90510  -2.18927   2.52793  -0.05919  -2.08877
  10        6PZ        -2.12646   1.24001  -0.21623   0.47714  -0.43381
  11        7PX         0.59845   0.47919   0.14619   0.18060   0.18988
  12        7PY        -0.09253  -0.59796  -0.43005  -0.15339   0.11322
  13        7PZ        -0.12307   0.01638  -0.08579   0.02851   0.49387
  14        8D 0       -0.24430  -0.16032   0.06163   0.34264   0.18718
  15        8D+1       -0.01889   0.93568   0.23937  -0.50690   0.03219
  16        8D-1        0.61843  -0.31518  -0.65834  -0.16765  -0.16633
  17        8D+2       -0.23702   0.89038   0.46137   0.39763   0.45833
  18        8D-2       -0.07238   0.46564  -0.45395  -0.76298  -0.04634
  19        9D 0       -0.87945   0.98544  -0.22539  -0.42629  -0.14964
  20        9D+1        0.48935   1.52608   0.05569   0.49575   0.09617
  21        9D-1       -0.33711  -0.36216  -0.62497   0.06166  -0.32111
  22        9D+2        0.42361   0.58318  -0.29833  -0.63457   0.17094
  23        9D-2       -0.10738   0.20996  -1.04890   0.31586  -0.32545
  24 2   F  1S          0.01108   0.01961  -0.00742   0.01050   0.00835
  25        2S          0.46757  -0.03910   0.14403   0.21287   0.17413
  26        3S         -1.13162  -0.10253  -0.39207  -0.80575  -0.49483
  27        4S         -0.69386   1.65833   0.74325   1.50271  -0.83001
  28        5PX        -0.33837   0.05503  -0.07753   0.12332  -0.02698
  29        5PY         0.03337   0.00994   0.20935  -0.14301   0.10309
  30        5PZ         0.04864   0.11677   0.08561  -0.04518  -0.10078
  31        6PX         0.95511  -0.44904  -0.33459  -0.15727   0.22789
  32        6PY        -0.24322  -0.25890  -0.38935  -0.04576  -0.30503
  33        6PZ        -0.36318  -0.57161  -0.26994  -0.02079   0.25558
  34        7PX        -0.92250  -0.73231  -0.33969  -0.28590  -0.15722
  35        7PY        -0.13473   0.68817   0.80499   0.85388   0.33210
  36        7PZ         0.22827  -0.55210  -0.26709  -0.04292  -1.05010
  37        8D 0       -0.03899   0.22355   0.08408  -0.00526  -0.13382
  38        8D+1       -0.03305  -0.11764  -0.04701   0.05389   0.05951
  39        8D-1       -0.08911   0.17443   0.06633  -0.05091  -0.06310
  40        8D+2        0.01756  -0.01935  -0.03630   0.06822   0.10438
  41        8D-2        0.03486   0.11770   0.04178   0.03311   0.13614
  42        9D 0        0.16978  -0.34062  -0.26050   0.06754  -0.18243
  43        9D+1        0.18036   0.25601   0.11832  -0.26064   0.13050
  44        9D-1       -0.10021  -0.31227  -0.04340   0.23828  -0.04799
  45        9D+2        0.01073   0.16677   0.20975   0.16881   0.08611
  46        9D-2        0.06623  -0.08883  -0.15631   0.07520   0.04807
  47 3   F  1S         -0.01803   0.01145  -0.03400  -0.02722   0.00672
  48        2S          0.09451   0.48083  -0.36972  -0.61746  -0.16952
  49        3S          0.03576  -1.17902   1.08417   1.67768   0.16850
  50        4S         -1.11510  -0.63606   1.06469   0.67340  -0.95061
  51        5PX         0.03222   0.12599   0.04625  -0.05720  -0.04437
  52        5PY        -0.16362   0.03656   0.20643  -0.09389   0.00403
  53        5PZ        -0.03210   0.13220  -0.01827  -0.09104   0.06233
  54        6PX         0.24519  -0.65392   0.71402   0.85315   0.21960
  55        6PY         0.48409  -0.81666  -0.21412   0.44033   0.02939
  56        6PZ         0.10526  -0.20975   0.27147   0.37868  -0.02372
  57        7PX        -0.99218  -0.60048  -0.01420  -0.10531  -0.60953
  58        7PY        -0.31815   0.49857  -0.42897   0.66982  -0.04081
  59        7PZ         0.47209   0.41209  -0.23257  -0.05582  -0.26625
  60        8D 0       -0.05016   0.00052   0.03306  -0.09639   0.00774
  61        8D+1       -0.07661   0.11808  -0.07648  -0.05211  -0.09564
  62        8D-1       -0.15487   0.09782  -0.00646  -0.06453   0.00755
  63        8D+2       -0.10281   0.04920  -0.13883  -0.18167   0.07114
  64        8D-2        0.00355   0.08741   0.03143   0.15657  -0.11073
  65        9D 0        0.05687   0.10430  -0.03842  -0.10961  -0.10728
  66        9D+1        0.18579  -0.27945  -0.03876   0.10828   0.20608
  67        9D-1        0.21467  -0.03983  -0.08148  -0.00968   0.14995
  68        9D+2       -0.12705  -0.07127   0.38050   0.24935  -0.11462
  69        9D-2        0.34456  -0.57315   0.06077   0.14402   0.25223
  70 4   F  1S          0.00096   0.00789  -0.02187   0.00300  -0.00399
  71        2S         -0.16316   0.04717   0.04932  -0.39140   0.24476
  72        3S          0.42116  -0.08916   0.25229   0.47512  -0.53694
  73        4S          2.00055  -1.61220  -1.38868   1.29216   2.13477
  74        5PX         0.04544   0.03568   0.06263  -0.09804   0.00793
  75        5PY         0.08519  -0.09886   0.03689   0.02250  -0.31641
  76        5PZ        -0.07872  -0.09226  -0.19499   0.24831  -0.17201
  77        6PX        -0.14617  -0.56807  -0.26198   0.19542   0.03506
  78        6PY        -0.33069   0.45054   0.18437  -0.02224   0.65387
  79        6PZ         0.17758   0.25861   0.32954  -0.84662   0.04844
  80        7PX        -0.87799  -1.49327   0.03363  -0.99911  -0.13561
  81        7PY         0.60495   0.65172  -0.21850   0.34493   0.39543
  82        7PZ        -0.09426   0.03090   0.86302  -0.24585  -1.09778
  83        8D 0        0.06259   0.06789   0.09622  -0.11985  -0.12194
  84        8D+1       -0.11347  -0.02193  -0.02871   0.16844  -0.07425
  85        8D-1        0.00035  -0.01238  -0.14597   0.04274   0.36503
  86        8D+2       -0.06400   0.01968  -0.00746  -0.04874   0.12649
  87        8D-2       -0.02114   0.02173   0.02436   0.02963   0.02902
  88        9D 0       -0.36641  -0.09795  -0.22647   0.49094   0.22714
  89        9D+1        0.32982   0.53535   0.06251  -0.13052   0.12613
  90        9D-1        0.40361  -0.29406  -0.22338  -0.13814  -0.51190
  91        9D+2        0.09449  -0.02341   0.00958   0.01725  -0.17267
  92        9D-2       -0.03441  -0.02761   0.19118   0.14438  -0.01485
  93 5   F  1S         -0.00888  -0.00606  -0.01975  -0.01695  -0.04205
  94        2S         -0.14398  -0.24284   0.16967  -0.41771   0.22178
  95        3S          0.33305   0.76684  -0.19145   1.08778   0.36158
  96        4S          0.04440   2.04792  -3.56650  -0.88232   0.17823
  97        5PX         0.17657  -0.05159   0.01111  -0.04446  -0.01221
  98        5PY         0.08850   0.19822  -0.14921   0.09906  -0.14913
  99        5PZ        -0.11415   0.00386   0.01900  -0.00832   0.16950
 100        6PX        -0.32929   0.08414   0.18902   0.20461   0.04871
 101        6PY        -0.42659  -0.33821   0.23650  -0.52140   0.17938
 102        6PZ         0.22573   0.27363   0.03005   0.44994   0.12896
 103        7PX        -0.04200  -0.38963   0.29877  -0.78918   0.07757
 104        7PY        -0.03987   0.35885   1.13045   0.13307  -0.10722
 105        7PZ        -0.18258   0.99160   0.02143  -0.87191   0.00194
 106        8D 0        0.06067  -0.12455  -0.10855   0.08995   0.19036
 107        8D+1        0.00123   0.03856  -0.00168   0.00528  -0.06377
 108        8D-1        0.03978   0.00157   0.10322  -0.04809  -0.16558
 109        8D+2        0.08644  -0.04797   0.02887  -0.09167   0.04267
 110        8D-2       -0.08012   0.06789  -0.14163  -0.15740   0.10466
 111        9D 0       -0.14668   0.27240   0.31639  -0.00223  -0.03075
 112        9D+1       -0.10671  -0.22820   0.15851   0.15111   0.02493
 113        9D-1       -0.00215  -0.05486  -0.26804  -0.21392   0.01698
 114        9D+2       -0.29463   0.16549  -0.09909   0.00019  -0.00276
 115        9D-2        0.10300   0.03234  -0.26721  -0.17347  -0.13368
                          31        32        33        34        35
     Eigenvalues --     0.00000   0.00000   0.00000   0.00000   0.00000
   1 1   B  1S          0.00725  -0.08627   0.05535   0.07059  -0.13379
   2        2S         -0.13553  -0.50622  -0.62292   0.80382  -0.86429
   3        3S         -1.16795   0.97854  -3.15581  -0.77139   1.78969
   4        4S         -0.85756  -0.36380   0.35694   0.38267   0.27393
   5        5PX         0.36920   0.27445   0.06411   0.44136   0.50725
   6        5PY        -0.06023  -0.02888  -0.29295  -0.35915  -0.25166
   7        5PZ        -0.13381  -0.56486  -0.00426  -0.48482  -0.41037
   8        6PX        -0.81718  -0.16961  -0.13636  -0.25948   0.92205
   9        6PY        -0.99998  -1.80989  -0.36965  -1.00243  -1.28617
  10        6PZ        -2.87180  -1.53698   1.56494  -0.97878   0.04642
  11        7PX        -0.04836   0.01103   0.14348   0.01792   0.37913
  12        7PY         0.39628  -0.20221  -0.07077  -0.24427  -0.04943
  13        7PZ        -0.23459   0.04735  -0.15341   0.27818   0.05875
  14        8D 0        0.01487  -0.40071   0.20845  -1.35143  -0.80958
  15        8D+1        0.07254   0.15848   0.19641  -0.31926  -0.14618
  16        8D-1       -0.63229   0.23836   0.26430   0.30439   0.69073
  17        8D+2        0.06398   0.16612  -0.02290  -0.00821  -0.40521
  18        8D-2        0.17903   0.17236   0.32953   0.35595  -0.32826
  19        9D 0        0.08016  -0.79572   0.83443  -1.61202   1.09418
  20        9D+1       -0.03826   0.15635   0.15007   0.44033  -0.25916
  21        9D-1       -0.19744   0.65600   0.76351   0.18297   0.57884
  22        9D+2        0.61736  -0.67509   0.36345  -0.03607   0.19871
  23        9D-2       -0.24230  -0.04488   0.43853   0.09561   0.81139
  24 2   F  1S         -0.00128   0.01799  -0.02123   0.00677   0.00123
  25        2S          0.00929  -0.12373  -0.43499   0.20987   0.20429
  26        3S          0.13586  -0.13018   1.19410  -0.46149  -0.49025
  27        4S         -0.73289  -1.11142   0.40796  -1.72354  -1.54589
  28        5PX         0.06746  -0.01489   0.08048   0.17337  -0.01891
  29        5PY        -0.04844  -0.00434   0.04271   0.08804   0.01718
  30        5PZ         0.23046  -0.03933   0.00740   0.13619  -0.23675
  31        6PX        -0.17747   0.33934  -0.54658   0.28676   0.61262
  32        6PY         0.06291  -0.11454   0.11297  -0.32254  -0.19181
  33        6PZ        -0.29155  -0.01422   0.05279  -0.38301   0.36816
  34        7PX         0.66026   0.45694   0.31704   0.39712   0.40876
  35        7PY        -0.11507   1.00440   0.11333  -0.01974  -0.68857
  36        7PZ         0.47615  -0.30684   0.59089  -0.92390   0.05735
  37        8D 0       -0.03188   0.09416   0.02919  -0.14791  -0.08344
  38        8D+1        0.06239   0.06193   0.08904  -0.17879   0.00814
  39        8D-1        0.00973   0.12590   0.05456   0.13260  -0.06333
  40        8D+2       -0.08682   0.26760   0.22835  -0.01742  -0.04398
  41        8D-2       -0.10800   0.13345   0.07623  -0.06379  -0.02460
  42        9D 0        0.01623  -0.00585  -0.02763   0.48051   0.07104
  43        9D+1        0.03600   0.05328  -0.23570   0.31364   0.17009
  44        9D-1       -0.01938  -0.25116  -0.14716  -0.26694  -0.09624
  45        9D+2       -0.08221  -0.33800  -0.08488  -0.01655  -0.30776
  46        9D-2        0.12572  -0.26888  -0.01902   0.19887   0.03407
  47 3   F  1S          0.00385   0.02134  -0.01542   0.01155  -0.01240
  48        2S          0.32679   0.10822  -0.03145   0.24041  -0.16777
  49        3S         -0.66458  -0.76129   0.10562  -0.75868   0.46418
  50        4S         -0.11800  -0.59968   0.64480  -1.67965  -1.37960
  51        5PX        -0.03722  -0.11778   0.06707  -0.20537  -0.09850
  52        5PY        -0.18984  -0.00451  -0.01010  -0.06355  -0.03426
  53        5PZ        -0.19626  -0.18866   0.01610   0.00075   0.01813
  54        6PX         0.17168  -0.09397   0.02744  -0.12623   0.10415
  55        6PY         0.50450  -0.06176   0.32886   0.17272   0.28822
  56        6PZ         0.40444   0.21739   0.19061  -0.36936   0.19739
  57        7PX         0.10548  -0.34122   0.45706  -0.13401  -0.73856
  58        7PY        -1.19996   0.89909  -0.23273  -0.23852  -0.12776
  59        7PZ        -0.26451  -0.10069   0.22398  -0.52189   0.04130
  60        8D 0       -0.08572   0.18179   0.07405  -0.09075  -0.06524
  61        8D+1       -0.07120   0.02153  -0.02826   0.17653  -0.09618
  62        8D-1       -0.01169   0.08954  -0.02489   0.07044  -0.11782
  63        8D+2       -0.09249   0.00861   0.15906   0.15390  -0.07324
  64        8D-2       -0.00535  -0.05026  -0.05580  -0.07384   0.04376
  65        9D 0       -0.23698  -0.12119  -0.24381   0.14489  -0.08294
  66        9D+1       -0.14657   0.00548   0.16220  -0.46109   0.14017
  67        9D-1        0.10264  -0.09414  -0.01171  -0.18100   0.05604
  68        9D+2        0.11648  -0.29577  -0.04216  -0.10728  -0.22065
  69        9D-2        0.11216   0.32285   0.05861   0.19676   0.23840
  70 4   F  1S          0.00371  -0.01067  -0.02915  -0.01095  -0.03267
  71        2S         -0.25151  -0.02627   0.19193  -0.35507   0.15660
  72        3S          0.41297   0.27527  -0.08240   1.16448   0.33657
  73        4S          3.38910   2.51246  -1.89846   3.57919  -1.64470
  74        5PX         0.10200   0.06422   0.01113   0.07936  -0.10979
  75        5PY        -0.17030   0.18332   0.06453   0.12826   0.02580
  76        5PZ         0.10939   0.20908  -0.07408   0.12673   0.22058
  77        6PX        -0.10478  -0.09373  -0.18956  -0.01306   0.11904
  78        6PY         0.62770  -0.39901  -0.27047  -0.47994  -0.41480
  79        6PZ        -0.65431  -0.60662  -0.21129  -0.83541  -0.89494
  80        7PX         0.06583  -0.12271  -0.09095  -0.26846  -0.14606
  81        7PY        -0.32065  -0.25408  -0.16839   0.15184  -0.48982
  82        7PZ        -0.48729  -0.56931   0.36704  -0.85239   0.59147
  83        8D 0        0.00797  -0.01204  -0.12656   0.09247  -0.00703
  84        8D+1        0.14690  -0.00917  -0.03128   0.03828  -0.06374
  85        8D-1        0.09606  -0.09826   0.12614  -0.05977  -0.15398
  86        8D+2        0.04203   0.08393   0.03465   0.03396  -0.04423
  87        8D-2       -0.01365  -0.00561   0.03804   0.08514   0.03708
  88        9D 0        0.04797   0.30752   0.08470   0.20338   0.21052
  89        9D+1        0.10393   0.14746   0.11828   0.05732   0.04474
  90        9D-1       -0.29838   0.23701   0.40460   0.08988   0.42162
  91        9D+2        0.09473  -0.06382  -0.12530  -0.09652   0.00695
  92        9D-2        0.01830  -0.07099  -0.10488  -0.04797  -0.06292
  93 5   F  1S          0.00311   0.01229  -0.04052  -0.02701   0.01468
[...]
 
     XX                                                                   X                                                          
     XX                                                                                                                              
     XX                                                                                                                              
     XX                                                                                                                              
     XX                                                                                                                              
     XX                                                                                                                              
     XX                                                                                                                              
     XX                                                                                                                              
     XX                                                                                                                              
     XX                                                                                                                              
     X                                                                                                                               
     X                                                                                                                               
     X                                                                                                                               
     X                                                                                                                               
     X                                                                                                                               
     X                                                                                                                               
     X                                                                                                                               
     X                                                                                                                               
     X                                                                                                                               
     X                                                                                                                               
 
 ***** Axes restored to original set *****
 -------------------------------------------------------------------
 Center     Atomic                   Forces (Hartrees/Bohr)
 Number     Number              X              Y              Z
 -------------------------------------------------------------------
      1        5          -0.000221001   -0.000035743    0.000002274
      2        9           0.000196800    0.000192587   -0.000307368
      3        9           0.000195790    0.000191475    0.000305187
      4        9          -0.000376598    0.000017485    0.000000324
      5        9           0.000205008   -0.000365804   -0.000000417
 -------------------------------------------------------------------
 Cartesian Forces:  Max     0.000376598 RMS     0.000217030
 Force constants in Cartesian coordinates: 
                1             2             3             4             5 
      1  0.364854D+00
      2  0.202130D-04  0.365369D+00
      3 -0.519417D-05 -0.510539D-05  0.365428D+00
      4 -0.629065D-01 -0.200634D-01  0.347663D-01  0.713287D-01
      5 -0.200601D-01 -0.771461D-01  0.492058D-01  0.343883D-01  0.956514D-01
      6  0.347546D-01  0.492045D-01 -0.133968D+00 -0.595731D-01 -0.842684D-01
      7 -0.629052D-01 -0.200623D-01 -0.347613D-01  0.106917D-01  0.151157D-02
      8 -0.200592D-01 -0.771406D-01 -0.492009D-01  0.151151D-02  0.117602D-01
      9 -0.347500D-01 -0.492005D-01 -0.133968D+00 -0.161467D-02 -0.227668D-02
     10 -0.176149D+00 -0.989914D-05  0.000000D+00 -0.298051D-01 -0.136869D-01
     11 -0.920879D-05 -0.487417D-01  0.000000D+00 -0.164780D-01  0.510510D-02
     12  0.000000D+00  0.000000D+00 -0.487492D-01  0.285358D-01  0.784841D-02
     13 -0.628931D-01  0.401154D-01  0.000000D+00  0.106912D-01 -0.215284D-02
     14  0.401084D-01 -0.162341D+00  0.000000D+00  0.641605D-03 -0.353706D-01
     15  0.000000D+00  0.127030D-05 -0.487432D-01 -0.211437D-02  0.294909D-01
                6             7             8             9            10 
      6  0.192933D+00
      7  0.161541D-02  0.713253D-01
      8  0.227794D-02  0.343847D-01  0.956451D-01
      9 -0.510654D-01  0.595670D-01  0.842635D-01  0.192933D+00
     10  0.237053D-01 -0.298030D-01 -0.136855D-01 -0.237060D-01  0.265575D+00
     11  0.785004D-02 -0.164766D-01  0.510570D-02 -0.784983D-02 -0.203230D-05
     12 -0.395847D-02 -0.285369D-01 -0.784810D-02 -0.395952D-02  0.000000D+00
     13 -0.502250D-03  0.106912D-01 -0.215154D-02  0.503578D-03 -0.298175D-01
     14  0.249358D-01  0.642573D-03 -0.353704D-01 -0.249364D-01  0.273843D-01
     15 -0.394040D-02  0.211576D-02 -0.294924D-01 -0.394064D-02  0.000000D+00
               11            12            13            14            15 
     11  0.470273D-01
     12  0.000000D+00  0.470313D-01
     13  0.329658D-01  0.000000D+00  0.713282D-01
     14 -0.849636D-02  0.000000D+00 -0.687768D-01  0.241578D+00
     15  0.000000D+00  0.963584D-02 -0.200615D-05  0.000000D+00  0.469884D-01
 FormGI is forming the generalized inverse of G from B-inverse, IUseBI=4.
 Force constants in internal coordinates: 
                1             2             3             4             5 
      1  0.265907D+00
      2  0.356970D-01  0.265898D+00
      3  0.357363D-01  0.357356D-01  0.265575D+00
      4  0.357067D-01  0.357072D-01  0.357480D-01  0.265890D+00
      5  0.560266D-02  0.560308D-02 -0.352180D-02 -0.771489D-02  0.295405D-01
      6  0.884632D-02 -0.227280D-02  0.980345D-02 -0.163513D-01 -0.927369D-02
      7  0.171926D-01 -0.138218D-01 -0.152960D-01  0.118642D-01 -0.181413D-01
      8 -0.227242D-02  0.884431D-02  0.980205D-02 -0.163511D-01 -0.927398D-02
      9 -0.138213D-01  0.171932D-01 -0.152952D-01  0.118633D-01 -0.181413D-01
     10 -0.155578D-01 -0.155558D-01  0.145337D-01  0.166835D-01  0.252935D-01
     11 -0.108825D-01 -0.108816D-01 -0.768456D-02  0.294569D-01 -0.248202D-01
     12  0.893496D-02  0.893567D-02 -0.230895D-01  0.510668D-02  0.139358D-01
     13 -0.118236D-01  0.207584D-01 -0.115454D-01  0.255311D-02  0.696763D-02
     14 -0.207585D-01  0.118227D-01  0.115441D-01 -0.255357D-02 -0.696813D-02
                6             7             8             9            10 
      6  0.595964D-01
      7 -0.339248D-01  0.116175D+00
      8  0.378351D-02  0.234173D-01  0.595956D-01
      9  0.234170D-01 -0.499662D-01 -0.339242D-01  0.116172D+00
     10 -0.435913D-01 -0.375956D-01 -0.435909D-01 -0.375933D-01  0.137131D+00
     11 -0.274277D-01  0.286420D-01 -0.274267D-01  0.286418D-01  0.223776D-01
     12 -0.178134D-01  0.183989D-01 -0.178135D-01  0.183981D-01 -0.151453D-01
     13 -0.255419D-01 -0.649923D-02  0.772839D-02  0.248978D-01 -0.757229D-02
     14 -0.772848D-02 -0.248981D-01  0.255419D-01  0.649965D-02  0.757304D-02
               11            12            13            14 
     11  0.639557D-01
     12  0.473720D-02  0.396604D-01
     13  0.236896D-02  0.198300D-01  0.398852D-01
     14 -0.236823D-02 -0.198304D-01  0.200552D-01  0.398856D-01
 Leave Link  716 at Sat Aug  1 13:14:10 2020, MaxMem=   524288000 cpu:               0.2 elap:               0.0
 (Enter /home/ubuntu/g16/l103.exe)

 GradGradGradGradGradGradGradGradGradGradGradGradGradGradGradGradGradGrad
 Berny optimization.
 Red2BG is reusing G-inverse.
 Internal  Forces:  Max     0.000413189 RMS     0.000217752
 Search for a local minimum.
 Step number   1 out of a maximum of    2
 All quantities printed in internal units (Hartrees-Bohrs-Radians)
 Second derivative matrix not updated -- analytic derivatives used.
 The second derivative matrix:
                          R1        R2        R3        R4        A1
           R1           0.26591
           R2           0.03570   0.26590
           R3           0.03574   0.03574   0.26557
           R4           0.03571   0.03571   0.03575   0.26589
           A1           0.00560   0.00560  -0.00352  -0.00771   0.02954
           A2           0.00885  -0.00227   0.00980  -0.01635  -0.00927
           A3           0.01719  -0.01382  -0.01530   0.01186  -0.01814
           A4          -0.00227   0.00884   0.00980  -0.01635  -0.00927
           A5          -0.01382   0.01719  -0.01530   0.01186  -0.01814
           A6          -0.01556  -0.01556   0.01453   0.01668   0.02529
           D1          -0.01088  -0.01088  -0.00768   0.02946  -0.02482
           D2           0.00893   0.00894  -0.02309   0.00511   0.01394
           D3          -0.01182   0.02076  -0.01155   0.00255   0.00697
           D4          -0.02076   0.01182   0.01154  -0.00255  -0.00697
                          A2        A3        A4        A5        A6
           A2           0.05960
           A3          -0.03392   0.11617
           A4           0.00378   0.02342   0.05960
           A5           0.02342  -0.04997  -0.03392   0.11617
           A6          -0.04359  -0.03760  -0.04359  -0.03759   0.13713
           D1          -0.02743   0.02864  -0.02743   0.02864   0.02238
           D2          -0.01781   0.01840  -0.01781   0.01840  -0.01515
           D3          -0.02554  -0.00650   0.00773   0.02490  -0.00757
           D4          -0.00773  -0.02490   0.02554   0.00650   0.00757
                          D1        D2        D3        D4
           D1           0.06396
           D2           0.00474   0.03966
           D3           0.00237   0.01983   0.03989
           D4          -0.00237  -0.01983   0.02006   0.03989
 ITU=  0
     Eigenvalues ---    0.07045   0.08010   0.12027   0.17936   0.17971
     Eigenvalues ---    0.25174   0.25229   0.25797   0.37298
 Angle between quadratic step and forces=  26.75 degrees.
 Linear search not attempted -- first point.
 Iteration  1 RMS(Cart)=  0.00063569 RMS(Int)=  0.00000026
 Iteration  2 RMS(Cart)=  0.00000021 RMS(Int)=  0.00000010
 ITry= 1 IFail=0 DXMaxC= 1.38D-03 DCOld= 1.00D+10 DXMaxT= 3.00D-01 DXLimC= 3.00D+00 Rises=F
 Variable       Old X    -DE/DX   Delta X   Delta X   Delta X     New X
                                 (Linear)    (Quad)   (Total)
    R1        2.68739   0.00041   0.00000   0.00121   0.00121   2.68860
    R2        2.68740   0.00040   0.00000   0.00120   0.00120   2.68860
    R3        2.68787   0.00038   0.00000   0.00072   0.00072   2.68859
    R4        2.68744   0.00041   0.00000   0.00116   0.00116   2.68861
    A1        1.91112  -0.00002   0.00000  -0.00048  -0.00048   1.91064
    A2        1.91032   0.00002   0.00000   0.00032   0.00032   1.91063
    A3        1.91096  -0.00005   0.00000  -0.00032  -0.00032   1.91063
    A4        1.91032   0.00002   0.00000   0.00032   0.00032   1.91063
    A5        1.91095  -0.00005   0.00000  -0.00032  -0.00032   1.91063
    A6        1.91014   0.00007   0.00000   0.00049   0.00049   1.91063
    D1       -2.09460  -0.00000   0.00000   0.00020   0.00020  -2.09440
    D2        2.09538  -0.00008   0.00000  -0.00098  -0.00098   2.09440
    D3       -2.09390  -0.00004   0.00000  -0.00049  -0.00049  -2.09439
    D4        2.09390   0.00004   0.00000   0.00049   0.00049   2.09439
         Item               Value     Threshold  Converged?
 Maximum Force            0.000413     0.000450     YES
 RMS     Force            0.000218     0.000300     YES
 Maximum Displacement     0.001383     0.001800     YES
 RMS     Displacement     0.000636     0.001200     YES
 Predicted change in Energy=-9.706054D-07
 Optimization completed.
    -- Stationary point found.
                           ----------------------------
                           !   Optimized Parameters   !
                           ! (Angstroms and Degrees)  !
 --------------------------                            --------------------------
 ! Name  Definition              Value          Derivative Info.                !
 --------------------------------------------------------------------------------
 ! R1    R(1,2)                  1.4221         -DE/DX =    0.0004              !
 ! R2    R(1,3)                  1.4221         -DE/DX =    0.0004              !
 ! R3    R(1,4)                  1.4224         -DE/DX =    0.0004              !
 ! R4    R(1,5)                  1.4221         -DE/DX =    0.0004              !
 ! A1    A(2,1,3)              109.4991         -DE/DX =    0.0                 !
 ! A2    A(2,1,4)              109.453          -DE/DX =    0.0                 !
 ! A3    A(2,1,5)              109.4897         -DE/DX =    0.0                 !
 ! A4    A(3,1,4)              109.4532         -DE/DX =    0.0                 !
 ! A5    A(3,1,5)              109.4892         -DE/DX =    0.0                 !
 ! A6    A(4,1,5)              109.4431         -DE/DX =    0.0001              !
 ! D1    D(2,1,4,3)           -120.0119         -DE/DX =    0.0                 !
 ! D2    D(2,1,5,3)            120.0565         -DE/DX =   -0.0001              !
 ! D3    D(2,1,5,4)           -119.9718         -DE/DX =    0.0                 !
 ! D4    D(3,1,5,4)            119.9717         -DE/DX =    0.0                 !
 --------------------------------------------------------------------------------
 GradGradGradGradGradGradGradGradGradGradGradGradGradGradGradGradGradGrad

 Leave Link  103 at Sat Aug  1 13:14:10 2020, MaxMem=   524288000 cpu:               0.1 elap:               0.0
 (Enter /home/ubuntu/g16/l9999.exe)

 ----------------------------------------------------------------------

 Electric dipole moment (input orientation):
 (Debye = 10**-18 statcoulomb cm , SI units = C m)
                  (au)            (Debye)         (10**-30 SI)
   Tot        0.125784D-02      0.319712D-02      0.106644D-01
   x          0.123876D-02      0.314862D-02      0.105027D-01
   y          0.217906D-03      0.553863D-03      0.184749D-02
   z         -0.124098D-04     -0.315425D-04     -0.105215D-03

 Dipole polarizability, Alpha (input orientation).
 (esu units = cm**3 , SI units = C**2 m**2 J**-1)
 Alpha(0;0):
               (au)            (10**-24 esu)      (10**-40 SI)
   iso        0.243311D+02      0.360550D+01      0.401166D+01
   aniso      0.177897D-02      0.263617D-03      0.293313D-03
   xx         0.243302D+02      0.360537D+01      0.401151D+01
   yx        -0.382589D-03     -0.566938D-04     -0.630804D-04
   yy         0.243321D+02      0.360565D+01      0.401182D+01
   zx         0.830578D-04      0.123079D-04      0.136944D-04
   zy         0.523023D-04      0.775040D-05      0.862349D-05
   zz         0.243310D+02      0.360549D+01      0.401165D+01

 ----------------------------------------------------------------------

 Dipole orientation:
     5         -1.87712494          0.01585582         11.50967112
     9          0.08418454          1.47029443         12.63213216
     9         -4.23847171          0.70985835         12.58879976
     9         -1.93202597          0.47882297          8.86254116
     9         -1.42215887         -2.59562727         11.95183979

 Electric dipole moment (dipole orientation):
 (Debye = 10**-18 statcoulomb cm , SI units = C m)
                  (au)            (Debye)         (10**-30 SI)
   Tot        0.125784D-02      0.319712D-02      0.106644D-01
   x          0.000000D+00      0.000000D+00      0.000000D+00
   y          0.000000D+00      0.000000D+00      0.000000D+00
   z          0.125784D-02      0.319712D-02      0.106644D-01

 Dipole polarizability, Alpha (dipole orientation).
 (esu units = cm**3 , SI units = C**2 m**2 J**-1)
 Alpha(0;0):
               (au)            (10**-24 esu)      (10**-40 SI)
   iso        0.243311D+02      0.360550D+01      0.401166D+01
   aniso      0.177897D-02      0.263617D-03      0.293313D-03
   xx         0.243311D+02      0.360549D+01      0.401165D+01
   yx        -0.231478D-03     -0.343015D-04     -0.381656D-04
   yy         0.243321D+02      0.360565D+01      0.401183D+01
   zx        -0.743981D-04     -0.110247D-04     -0.122666D-04
   zy        -0.512380D-04     -0.759269D-05     -0.844800D-05
   zz         0.243301D+02      0.360536D+01      0.401150D+01

 ----------------------------------------------------------------------
 1\1\GINC-LC06-1-2\Freq\UB3LYP\Aug-CC-pVDZ\B1F4(1-)\UBUNTU\01-Aug-2020\
 0\\#P Geom=AllCheck Guess=TCheck SCRF=Check GenChk UB3LYP/Aug-CC-pVDZ 
 Freq\\BF4-_UB3LYP-aug-cc-pVDZ\\-1,1\B,5.97651,1.23443,0.91672\F,6.4500
 8,1.90482,-0.24461\F,6.45007,1.90479,2.07808\F,4.55415,1.23433,0.91671
 \F,6.44999,-0.10657,0.91671\\Version=ES64L-G16RevA.03\State=1-A\HF=-42
 4.5903128\S2=0.\S2-1=0.\S2A=0.\RMSD=6.143e-11\RMSF=2.170e-04\ZeroPoint
 =0.0134524\Thermal=0.0179973\Dipole=0.0012388,0.0002179,-0.0000124\Dip
 oleDeriv=1.8806375,-0.0000076,-0.0000014,0.0001329,1.8809502,0.0000016
 ,0.0000067,-0.0000001,1.8810832,-0.5750778,-0.1024435,0.1774552,-0.102
 5958,-0.6476532,0.2512495,0.1777171,0.2512825,-0.9378299,-0.575077,-0.
 1024335,-0.1774518,-0.1025899,-0.6476405,-0.2512425,-0.1777188,-0.2512
 757,-0.9378466,-1.1554202,0.0000343,-0.0000036,-0.0000582,-0.5027664,0
 .0000005,-0.0000043,-0.0000011,-0.5027643,-0.5750625,0.2048502,0.00000
 16,0.2051109,-1.0828902,-0.000009,-0.0000006,-0.0000055,-0.5026425\Pol
 ar=24.3302254,-0.0003826,24.332115,0.0000831,0.0000523,24.331033\Quadr
 upole=-0.0004122,0.0002501,0.0001621,-0.0000429,-0.0000264,-0.0000127\
 PG=C01 [X(B1F4)]\NImag=0\\0.36485387,0.00002021,0.36536924,-0.00000519
 ,-0.00000511,0.36542835,-0.06290648,-0.02006337,0.03476629,0.07132871,
 -0.02006014,-0.07714612,0.04920576,0.03438827,0.09565141,0.03475465,0.
 04920453,-0.13396826,-0.05957308,-0.08426836,0.19293253,-0.06290519,-0
 .02006231,-0.03476135,0.01069165,0.00151157,0.00161541,0.07132533,-0.0
 2005924,-0.07714062,-0.04920089,0.00151151,0.01176023,0.00227794,0.034
 38475,0.09564508,-0.03474999,-0.04920053,-0.13396772,-0.00161467,-0.00
 227668,-0.05106539,0.05956704,0.08426348,0.19293327,-0.17614910,-0.000
 00990,0.,-0.02980511,-0.01368686,0.02370527,-0.02980297,-0.01368548,-0
 .02370595,0.26557468,-0.00000921,-0.04874173,-0.00000017,-0.01647802,0
 .00510510,0.00785004,-0.01647657,0.00510570,-0.00784983,-0.00000203,0.
 04702729,0.00000006,-0.00000017,-0.04874918,0.02853584,0.00784841,-0.0
 0395847,-0.02853686,-0.00784810,-0.00395952,0.00000055,-0.00000077,0.0
 4703134,-0.06289311,0.04011537,0.00000026,0.01069123,-0.00215284,-0.00
 050225,0.01069118,-0.00215154,0.00050358,-0.02981749,0.03296583,0.0000
 0042,0.07132819,0.04010837,-0.16234076,0.00000041,0.00064160,-0.035370
 61,0.02493585,0.00064257,-0.03537039,-0.02493644,0.02738427,-0.0084963
 6,0.00000063,-0.06877682,0.24157812,0.00000048,0.00000127,-0.04874319,
 -0.00211437,0.02949087,-0.00394040,0.00211576,-0.02949242,-0.00394064,
 0.00000014,0.00000073,0.00963584,-0.00000201,-0.00000045,0.04698839\\0
 .00022100,0.00003574,-0.00000227,-0.00019680,-0.00019259,0.00030737,-0
 .00019579,-0.00019147,-0.00030519,0.00037660,-0.00001748,-0.00000032,-
 0.00020501,0.00036580,0.00000042\\\@


 WE STILL HAVE JUDGEMENT HERE,
 THAT WE TEACH BUT BLOODY INSTRUCTIONS,
 WHICH, BEING TAUGHT,
 RETURN TO PLAGUE THE INVENTOR.
           MACBETH ACT I, SCENE VII
 Job cpu time:       0 days  0 hours  5 minutes 26.0 seconds.
 Elapsed time:       0 days  0 hours  0 minutes 47.0 seconds.
 File lengths (MBytes):  RWF=     22 Int=      0 D2E=      0 Chk=      3 Scr=      1
 Normal termination of Gaussian 16 at Sat Aug  1 13:14:10 2020.
