 Entering Gaussian System, Link 0=/home/ubuntu/g16/g16
 Input=Br-_UB3LYP-aug-cc-pVDZ-Opt.gjf
 Output=Br-_UB3LYP-aug-cc-pVDZ-Opt.log
 Initial command:
 /home/ubuntu/g16/l1.exe "/home/ubuntu/g16/Gau-25902.inp" -scrdir="/home/ubuntu/g16/"
 Entering Link 1 = /home/ubuntu/g16/l1.exe PID=     25904.
  
 Copyright (c) 1988,1990,1992,1993,1995,1998,2003,2009,2016,
            Gaussian, Inc.  All Rights Reserved.
  
 This is part of the Gaussian(R) 16 program.  It is based on
 the Gaussian(R) 09 system (copyright 2009, Gaussian, Inc.),
 the Gaussian(R) 03 system (copyright 2003, Gaussian, Inc.),
 the Gaussian(R) 98 system (copyright 1998, Gaussian, Inc.),
 the Gaussian(R) 94 system (copyright 1995, Gaussian, Inc.),
 the Gaussian 92(TM) system (copyright 1992, Gaussian, Inc.),
 the Gaussian 90(TM) system (copyright 1990, Gaussian, Inc.),
 the Gaussian 88(TM) system (copyright 1988, Gaussian, Inc.),
 the Gaussian 86(TM) system (copyright 1986, Carnegie Mellon
 University), and the Gaussian 82(TM) system (copyright 1983,
 Carnegie Mellon University). Gaussian is a federally registered
 trademark of Gaussian, Inc.
  
 This software contains proprietary and confidential information,
 including trade secrets, belonging to Gaussian, Inc.
  
 This software is provided under written license and may be
 used, copied, transmitted, or stored only in accord with that
 written license.
  
 The following legend is applicable only to US Government
 contracts under FAR:
  
                    RESTRICTED RIGHTS LEGEND
  
 Use, reproduction and disclosure by the US Government is
 subject to restrictions as set forth in subparagraphs (a)
 and (c) of the Commercial Computer Software - Restricted
 Rights clause in FAR 52.227-19.
  
 Gaussian, Inc.
 340 Quinnipiac St., Bldg. 40, Wallingford CT 06492
  
  
 ---------------------------------------------------------------
 Warning -- This program may not be used in any manner that
 competes with the business of Gaussian, Inc. or will provide
 assistance to any competitor of Gaussian, Inc.  The licensee
 of this program is prohibited from giving any competitor of
 Gaussian, Inc. access to this program.  By using this program,
 the user acknowledges that Gaussian, Inc. is engaged in the
 business of creating and licensing software in the field of
 computational chemistry and represents and warrants to the
 licensee that it is not a competitor of Gaussian, Inc. and that
 it will not use this program in any manner prohibited above.
 ---------------------------------------------------------------
  

 Cite this work as:
 Gaussian 16, Revision A.03,
 M. J. Frisch, G. W. Trucks, H. B. Schlegel, G. E. Scuseria, 
 M. A. Robb, J. R. Cheeseman, G. Scalmani, V. Barone, 
 G. A. Petersson, H. Nakatsuji, X. Li, M. Caricato, A. V. Marenich, 
 J. Bloino, B. G. Janesko, R. Gomperts, B. Mennucci, H. P. Hratchian, 
 J. V. Ortiz, A. F. Izmaylov, J. L. Sonnenberg, D. Williams-Young, 
 F. Ding, F. Lipparini, F. Egidi, J. Goings, B. Peng, A. Petrone, 
 T. Henderson, D. Ranasinghe, V. G. Zakrzewski, J. Gao, N. Rega, 
 G. Zheng, W. Liang, M. Hada, M. Ehara, K. Toyota, R. Fukuda, 
 J. Hasegawa, M. Ishida, T. Nakajima, Y. Honda, O. Kitao, H. Nakai, 
 T. Vreven, K. Throssell, J. A. Montgomery, Jr., J. E. Peralta, 
 F. Ogliaro, M. J. Bearpark, J. J. Heyd, E. N. Brothers, K. N. Kudin, 
 V. N. Staroverov, T. A. Keith, R. Kobayashi, J. Normand, 
 K. Raghavachari, A. P. Rendell, J. C. Burant, S. S. Iyengar, 
 J. Tomasi, M. Cossi, J. M. Millam, M. Klene, C. Adamo, R. Cammi, 
 J. W. Ochterski, R. L. Martin, K. Morokuma, O. Farkas, 
 J. B. Foresman, and D. J. Fox, Gaussian, Inc., Wallingford CT, 2016.
 
 ******************************************
 Gaussian 16:  ES64L-G16RevA.03 25-Dec-2016
                11-Mar-2019 
 ******************************************
 %chk=Br-_UB3LYP-aug-cc-pVDZ-Opt.chk
 %mem=500MW
 %nproc=7
 Will use up to    7 processors via shared memory.
 ----------------------------------------------------------------------
 #p opt=(maxcycles=777) freq ub3lyp/aug-cc-pVDZ pop=(Bonding,AllOrbital
 s,mk,no,nboread)
 ----------------------------------------------------------------------
 1/6=777,18=20,19=15,26=3,38=1/1,3;
 2/9=110,12=2,17=6,18=5,40=1/2;
 3/5=16,7=10,11=2,25=1,30=1,71=1,74=-5,116=2/1,2,3;
 4//1;
 5/5=2,38=5/2;
 6/7=2,8=2,9=2,10=2,15=8,20=1,22=-1,27=20,28=1,31=1,40=2,96=-1/1,2,7;
 7//1,2,3,16;
 1/6=777,18=20,19=15,26=3/3(2);
 2/9=110/2;
 99//99;
 2/9=110/2;
 3/5=16,7=10,11=2,25=1,30=1,71=1,74=-5,116=2/1,2,3;
 4/5=5,16=3,69=1/1;
 5/5=2,38=5/2;
 7//1,2,3,16;
 1/6=777,18=20,19=15,26=3/3(-5);
 2/9=110/2;
 6/7=2,8=2,9=2,10=2,15=8,19=2,20=1,22=-1,27=20,28=1,31=1,40=2,96=-1/1,2,7;
 99/9=1/99;
 Leave Link    1 at Mon Mar 11 17:58:14 2019, MaxMem=   524288000 cpu:               0.4 elap:               0.1
 (Enter /home/ubuntu/g16/l101.exe)
 ----------------------
 Br-_UB3LYP-aug-cc-pVDZ
 ----------------------
 Symbolic Z-matrix:
 Charge = -1 Multiplicity = 1
 Br                   -0.74756  -0.5277    0.004 
 
 ITRead=  0
 MicOpt= -1
 NAtoms=      1 NQM=        1 NQMF=       0 NMMI=      0 NMMIF=      0
                NMic=       0 NMicF=      0.
                    Isotopes and Nuclear Properties:
 (Nuclear quadrupole moments (NQMom) in fm**2, nuclear magnetic moments (NMagM)
  in nuclear magnetons)

  Atom         1
 IAtWgt=          79
 AtmWgt=  78.9183361
 NucSpn=           3
 AtZEff=  -0.0000000
 NQMom=   31.3000000
 NMagM=    2.1063990
 AtZNuc=  35.0000000
 Leave Link  101 at Mon Mar 11 17:58:15 2019, MaxMem=   524288000 cpu:               0.6 elap:               0.1
 (Enter /home/ubuntu/g16/l103.exe)

 GradGradGradGradGradGradGradGradGradGradGradGradGradGradGradGradGradGrad
 Berny optimization.
 Initialization pass.
 No Z-matrix variables, so optimization will use Cartesian coordinates.
 Trust Radius=1.00D-01 FncErr=1.00D-07 GrdErr=1.00D-06 EigMax=2.50D+02 EigMin=1.00D-04
 Number of steps in this run=    100 maximum allowed number of steps=    100.
 GradGradGradGradGradGradGradGradGradGradGradGradGradGradGradGradGradGrad

 Leave Link  103 at Mon Mar 11 17:58:15 2019, MaxMem=   524288000 cpu:               0.1 elap:               0.0
 (Enter /home/ubuntu/g16/l202.exe)
                          Input orientation:                          
 ---------------------------------------------------------------------
 Center     Atomic      Atomic             Coordinates (Angstroms)
 Number     Number       Type             X           Y           Z
 ---------------------------------------------------------------------
      1         35           0       -0.747560   -0.527700    0.004000
 ---------------------------------------------------------------------
 Stoichiometry    Br(1-)
 Framework group  OH[O(Br)]
 Deg. of freedom     0
 Full point group                 OH      NOp  48
 Largest Abelian subgroup         D2H     NOp   8
 Largest concise Abelian subgroup C1      NOp   1
                         Standard orientation:                         
 ---------------------------------------------------------------------
 Center     Atomic      Atomic             Coordinates (Angstroms)
 Number     Number       Type             X           Y           Z
 ---------------------------------------------------------------------
      1         35           0        0.000000    0.000000    0.000000
 ---------------------------------------------------------------------
 Leave Link  202 at Mon Mar 11 17:58:15 2019, MaxMem=   524288000 cpu:               0.2 elap:               0.0
 (Enter /home/ubuntu/g16/l301.exe)
 Standard basis: Aug-CC-pVDZ (5D, 7F)
 Ernie: Thresh=  0.10000D-02 Tol=  0.10000D-05 Strict=F.
 Ernie:  23 primitive shells out of 93 were deleted.
 There are    15 symmetry adapted cartesian basis functions of AG  symmetry.
 There are     3 symmetry adapted cartesian basis functions of B1G symmetry.
 There are     3 symmetry adapted cartesian basis functions of B2G symmetry.
 There are     3 symmetry adapted cartesian basis functions of B3G symmetry.
 There are     0 symmetry adapted cartesian basis functions of AU  symmetry.
 There are     5 symmetry adapted cartesian basis functions of B1U symmetry.
 There are     5 symmetry adapted cartesian basis functions of B2U symmetry.
 There are     5 symmetry adapted cartesian basis functions of B3U symmetry.
 There are    12 symmetry adapted basis functions of AG  symmetry.
 There are     3 symmetry adapted basis functions of B1G symmetry.
 There are     3 symmetry adapted basis functions of B2G symmetry.
 There are     3 symmetry adapted basis functions of B3G symmetry.
 There are     0 symmetry adapted basis functions of AU  symmetry.
 There are     5 symmetry adapted basis functions of B1U symmetry.
 There are     5 symmetry adapted basis functions of B2U symmetry.
 There are     5 symmetry adapted basis functions of B3U symmetry.
    36 basis functions,   157 primitive gaussians,    39 cartesian basis functions
    18 alpha electrons       18 beta electrons
       nuclear repulsion energy         0.0000000000 Hartrees.
 IExCor=  402 DFT=T Ex+Corr=B3LYP ExCW=0 ScaHFX=  0.200000
 ScaDFX=  0.800000  0.720000  1.000000  0.810000 ScalE2=  1.000000  1.000000
 IRadAn=      5 IRanWt=     -1 IRanGd=            0 ICorTp=0 IEmpDi=  4
 NAtoms=    1 NActive=    1 NUniq=    1 SFac= 1.00D+00 NAtFMM=   60 NAOKFM=F Big=F
 Integral buffers will be    131072 words long.
 Raffenetti 2 integral format.
 Two-electron integral symmetry is turned on.
 Leave Link  301 at Mon Mar 11 17:58:15 2019, MaxMem=   524288000 cpu:               0.7 elap:               0.2
 (Enter /home/ubuntu/g16/l302.exe)
 NPDir=0 NMtPBC=     1 NCelOv=     1 NCel=       1 NClECP=     1 NCelD=      1
         NCelK=      1 NCelE2=     1 NClLst=     1 CellRange=     0.0.
 One-electron integrals computed using PRISM.
 One-electron integral symmetry used in STVInt
 NBasis=    36 RedAO= T EigKep=  4.07D-02  NBF=    12     3     3     3     0     5     5     5
 NBsUse=    36 1.00D-06 EigRej= -1.00D+00 NBFU=    12     3     3     3     0     5     5     5
 Precomputing XC quadrature grid using
 IXCGrd= 4 IRadAn=           5 IRanWt=          -1 IRanGd=           0 AccXCQ= 0.00D+00.
 Generated NRdTot=       0 NPtTot=           0 NUsed=           0 NTot=          32
 NSgBfM=    39    39    39    39    39 MxSgAt=     1 MxSgA2=     1.
 Leave Link  302 at Mon Mar 11 17:58:15 2019, MaxMem=   524288000 cpu:               1.3 elap:               0.2
 (Enter /home/ubuntu/g16/l303.exe)
 DipDrv:  MaxL=1.
 Leave Link  303 at Mon Mar 11 17:58:15 2019, MaxMem=   524288000 cpu:               0.3 elap:               0.1
 (Enter /home/ubuntu/g16/l401.exe)
 ExpMin= 4.10D-02 ExpMax= 6.40D+05 ExpMxC= 6.18D+03 IAcc=3 IRadAn=         5 AccDes= 0.00D+00
 Harris functional with IExCor=  402 and IRadAn=       5 diagonalized for initial guess.
 HarFok:  IExCor=  402 AccDes= 0.00D+00 IRadAn=         5 IDoV= 1 UseB2=F ITyADJ=14
 ICtDFT=  3500011 ScaDFX=  1.000000  1.000000  1.000000  1.000000
 FoFCou: FMM=F IPFlag=           0 FMFlag=      100000 FMFlg1=           0
         NFxFlg=           0 DoJE=T BraDBF=F KetDBF=T FulRan=T
         wScrn=  0.000000 ICntrl=       500 IOpCl=  0 I1Cent=   200000004 NGrid=           0
         NMat0=    1 NMatS0=      1 NMatT0=    0 NMatD0=    1 NMtDS0=    0 NMtDT0=    0
 Petite list used in FoFCou.
 Harris En= -2574.50719895344    
 JPrj=0 DoOrth=F DoCkMO=F.
 Initial guess orbital symmetries:
 Alpha Orbitals:
       Occupied  (A1G) (A1G) (T1U) (T1U) (T1U) (A1G) (T1U) (T1U)
                 (T1U) (T2G) (T2G) (T2G) (EG) (EG) (A1G) (T1U)
                 (T1U) (T1U)
       Virtual   (A1G) (T1U) (T1U) (T1U) (T2G) (T2G) (T2G) (EG)
                 (EG) (T1U) (T1U) (T1U) (A1G) (T2G) (T2G) (T2G)
                 (EG) (EG)
 Beta  Orbitals:
       Occupied  (A1G) (A1G) (T1U) (T1U) (T1U) (A1G) (T1U) (T1U)
                 (T1U) (T2G) (T2G) (T2G) (EG) (EG) (A1G) (T1U)
                 (T1U) (T1U)
       Virtual   (A1G) (T1U) (T1U) (T1U) (T2G) (T2G) (T2G) (EG)
                 (EG) (T1U) (T1U) (T1U) (A1G) (T2G) (T2G) (T2G)
                 (EG) (EG)
 The electronic state of the initial guess is 1-A1G.
 Initial guess <Sx>= 0.0000 <Sy>= 0.0000 <Sz>= 0.0000 <S**2>=-0.0000 S=-0.0000
 Leave Link  401 at Mon Mar 11 17:58:16 2019, MaxMem=   524288000 cpu:               2.1 elap:               0.4
 (Enter /home/ubuntu/g16/l502.exe)
 Keep R1 and R2 ints in memory in symmetry-blocked form, NReq=6268700.
 FoFCou: FMM=F IPFlag=           0 FMFlag=           0 FMFlg1=           0
         NFxFlg=           0 DoJE=F BraDBF=F KetDBF=F FulRan=T
         wScrn=  0.000000 ICntrl=       600 IOpCl=  0 I1Cent=           0 NGrid=           0
         NMat0=    1 NMatS0=    666 NMatT0=    0 NMatD0=    1 NMtDS0=    0 NMtDT0=    0
 Petite list used in FoFCou.
 UHF open shell SCF:
 Using DIIS extrapolation, IDIIS=  1040.
 NGot=   524288000 LenX=   524216381 LenY=   524214419
 Requested convergence on RMS density matrix=1.00D-08 within 128 cycles.
 Requested convergence on MAX density matrix=1.00D-06.
 Requested convergence on             energy=1.00D-06.
 No special actions if energy rises.

 Cycle   1  Pass 1  IDiag  1:
 E= -2574.20289535625    
 DIIS: error= 2.75D-02 at cycle   1 NSaved=   1.
 NSaved= 1 IEnMin= 1 EnMin= -2574.20289535625     IErMin= 1 ErrMin= 2.75D-02
 ErrMax= 2.75D-02  0.00D+00 EMaxC= 1.00D-01 BMatC= 1.44D-01 BMatP= 1.44D-01
 IDIUse=3 WtCom= 7.25D-01 WtEn= 2.75D-01
 Coeff-Com:  0.100D+01
 Coeff-En:   0.100D+01
 Coeff:      0.100D+01
 Gap=     0.194 Goal=   None    Shift=    0.000
 Gap=     0.194 Goal=   None    Shift=    0.000
 GapD=    0.194 DampG=1.000 DampE=0.500 DampFc=0.5000 IDamp=-1.
 Damping current iteration by 5.00D-01
 RMSDP=1.42D-02 MaxDP=1.09D-01              OVMax= 4.56D-03

 Cycle   2  Pass 1  IDiag  1:
 E= -2574.22308142167     Delta-E=       -0.020186065419 Rises=F Damp=T
 DIIS: error= 1.27D-02 at cycle   2 NSaved=   2.
 NSaved= 2 IEnMin= 2 EnMin= -2574.22308142167     IErMin= 2 ErrMin= 1.27D-02
 ErrMax= 1.27D-02  0.00D+00 EMaxC= 1.00D-01 BMatC= 3.58D-02 BMatP= 1.44D-01
 IDIUse=3 WtCom= 8.73D-01 WtEn= 1.27D-01
 Coeff-Com: -0.154D+00 0.115D+01
 Coeff-En:   0.000D+00 0.100D+01
 Coeff:     -0.135D+00 0.113D+01
 Gap=     0.266 Goal=   None    Shift=    0.000
 Gap=     0.266 Goal=   None    Shift=    0.000
 RMSDP=3.36D-03 MaxDP=4.60D-02 DE=-2.02D-02 OVMax= 1.64D-03

 Cycle   3  Pass 1  IDiag  1:
 E= -2574.24474510444     Delta-E=       -0.021663682766 Rises=F Damp=F
 DIIS: error= 6.53D-03 at cycle   3 NSaved=   3.
 NSaved= 3 IEnMin= 3 EnMin= -2574.24474510444     IErMin= 3 ErrMin= 6.53D-03
 ErrMax= 6.53D-03  0.00D+00 EMaxC= 1.00D-01 BMatC= 1.30D-02 BMatP= 3.58D-02
 IDIUse=3 WtCom= 9.35D-01 WtEn= 6.53D-02
 Coeff-Com: -0.186D+00 0.531D+00 0.655D+00
 Coeff-En:   0.000D+00 0.000D+00 0.100D+01
 Coeff:     -0.174D+00 0.496D+00 0.678D+00
 Gap=     0.259 Goal=   None    Shift=    0.000
 Gap=     0.259 Goal=   None    Shift=    0.000
 RMSDP=1.65D-03 MaxDP=1.76D-02 DE=-2.17D-02 OVMax= 1.13D-03

 Cycle   4  Pass 1  IDiag  1:
 E= -2574.24807478000     Delta-E=       -0.003329675561 Rises=F Damp=F
 DIIS: error= 2.24D-04 at cycle   4 NSaved=   4.
 NSaved= 4 IEnMin= 4 EnMin= -2574.24807478000     IErMin= 4 ErrMin= 2.24D-04
 ErrMax= 2.24D-04  0.00D+00 EMaxC= 1.00D-01 BMatC= 1.37D-05 BMatP= 1.30D-02
 IDIUse=3 WtCom= 9.98D-01 WtEn= 2.24D-03
 Coeff-Com: -0.203D-01 0.393D-01 0.661D-01 0.915D+00
 Coeff-En:   0.000D+00 0.000D+00 0.000D+00 0.100D+01
 Coeff:     -0.202D-01 0.392D-01 0.659D-01 0.915D+00
 Gap=     0.260 Goal=   None    Shift=    0.000
 Gap=     0.260 Goal=   None    Shift=    0.000
 RMSDP=4.29D-05 MaxDP=6.47D-04 DE=-3.33D-03 OVMax= 6.51D-05

 Cycle   5  Pass 1  IDiag  1:
 E= -2574.24807614844     Delta-E=       -0.000001368447 Rises=F Damp=F
 DIIS: error= 3.71D-05 at cycle   5 NSaved=   5.
 NSaved= 5 IEnMin= 5 EnMin= -2574.24807614844     IErMin= 5 ErrMin= 3.71D-05
 ErrMax= 3.71D-05  0.00D+00 EMaxC= 1.00D-01 BMatC= 2.23D-07 BMatP= 1.37D-05
 IDIUse=1 WtCom= 1.00D+00 WtEn= 0.00D+00
 Coeff-Com: -0.822D-03 0.172D-02-0.255D-02-0.377D-01 0.104D+01
 Coeff:     -0.822D-03 0.172D-02-0.255D-02-0.377D-01 0.104D+01
 Gap=     0.260 Goal=   None    Shift=    0.000
 Gap=     0.260 Goal=   None    Shift=    0.000
 RMSDP=6.74D-06 MaxDP=9.08D-05 DE=-1.37D-06 OVMax= 6.86D-07

 Cycle   6  Pass 1  IDiag  1:
 E= -2574.24807622519     Delta-E=       -0.000000076748 Rises=F Damp=F
 DIIS: error= 4.33D-06 at cycle   6 NSaved=   6.
 NSaved= 6 IEnMin= 6 EnMin= -2574.24807622519     IErMin= 6 ErrMin= 4.33D-06
 ErrMax= 4.33D-06  0.00D+00 EMaxC= 1.00D-01 BMatC= 2.94D-09 BMatP= 2.23D-07
 IDIUse=1 WtCom= 1.00D+00 WtEn= 0.00D+00
 Coeff-Com: -0.639D-04 0.132D-03-0.112D-03-0.170D-02-0.583D-01 0.106D+01
 Coeff:     -0.639D-04 0.132D-03-0.112D-03-0.170D-02-0.583D-01 0.106D+01
 Gap=     0.260 Goal=   None    Shift=    0.000
 Gap=     0.260 Goal=   None    Shift=    0.000
 RMSDP=8.61D-07 MaxDP=1.07D-05 DE=-7.67D-08 OVMax= 6.75D-08

 Cycle   7  Pass 1  IDiag  1:
 E= -2574.24807622624     Delta-E=       -0.000000001052 Rises=F Damp=F
 DIIS: error= 1.98D-07 at cycle   7 NSaved=   7.
 NSaved= 7 IEnMin= 7 EnMin= -2574.24807622624     IErMin= 7 ErrMin= 1.98D-07
 ErrMax= 1.98D-07  0.00D+00 EMaxC= 1.00D-01 BMatC= 6.55D-12 BMatP= 2.94D-09
 IDIUse=1 WtCom= 1.00D+00 WtEn= 0.00D+00
 Coeff-Com: -0.157D-05 0.315D-05 0.891D-05 0.137D-03 0.778D-03-0.630D-01
 Coeff-Com:  0.106D+01
 Coeff:     -0.157D-05 0.315D-05 0.891D-05 0.137D-03 0.778D-03-0.630D-01
 Coeff:      0.106D+01
 Gap=     0.260 Goal=   None    Shift=    0.000
 Gap=     0.260 Goal=   None    Shift=    0.000
 RMSDP=4.13D-08 MaxDP=5.09D-07 DE=-1.05D-09 OVMax= 4.40D-09

 Cycle   8  Pass 1  IDiag  1:
 E= -2574.24807622625     Delta-E=       -0.000000000004 Rises=F Damp=F
 DIIS: error= 4.67D-09 at cycle   8 NSaved=   8.
 NSaved= 8 IEnMin= 8 EnMin= -2574.24807622625     IErMin= 8 ErrMin= 4.67D-09
 ErrMax= 4.67D-09  0.00D+00 EMaxC= 1.00D-01 BMatC= 3.30D-15 BMatP= 6.55D-12
 IDIUse=1 WtCom= 1.00D+00 WtEn= 0.00D+00
 Coeff-Com:  0.781D-07-0.156D-06-0.613D-06-0.999D-05-0.150D-04 0.296D-02
 Coeff-Com: -0.717D-01 0.107D+01
 Coeff:      0.781D-07-0.156D-06-0.613D-06-0.999D-05-0.150D-04 0.296D-02
 Coeff:     -0.717D-01 0.107D+01
 Gap=     0.260 Goal=   None    Shift=    0.000
 Gap=     0.260 Goal=   None    Shift=    0.000
 RMSDP=1.02D-09 MaxDP=1.22D-08 DE=-3.64D-12 OVMax= 6.17D-11

 SCF Done:  E(UB3LYP) =  -2574.24807623     A.U. after    8 cycles
            NFock=  8  Conv=0.10D-08     -V/T= 2.0015
 <Sx>= 0.0000 <Sy>= 0.0000 <Sz>= 0.0000 <S**2>= 0.0000 S= 0.0000
 <L.S>= 0.000000000000E+00
 KE= 2.570486884419D+03 PE=-6.162465845081D+03 EE= 1.017730884436D+03
 Annihilation of the first spin contaminant:
 S**2 before annihilation     0.0000,   after    -0.0000
 Leave Link  502 at Mon Mar 11 17:58:17 2019, MaxMem=   524288000 cpu:               4.8 elap:               0.8
 (Enter /home/ubuntu/g16/l601.exe)
 Copying SCF densities to generalized density rwf, IOpCl= 1 IROHF=0.

 **********************************************************************

            Population analysis using the SCF density.

 **********************************************************************

 Orbital symmetries:
 Alpha Orbitals:
       Occupied  (A1G) (A1G) (T1U) (T1U) (T1U) (A1G) (T1U) (T1U)
                 (T1U) (T2G) (T2G) (T2G) (EG) (EG) (A1G) (T1U)
                 (T1U) (T1U)
       Virtual   (T1U) (T1U) (T1U) (A1G) (T2G) (T2G) (T2G) (EG)
                 (EG) (T1U) (T1U) (T1U) (A1G) (T2G) (T2G) (T2G)
                 (EG) (EG)
 Beta  Orbitals:
       Occupied  (A1G) (A1G) (T1U) (T1U) (T1U) (A1G) (T1U) (T1U)
                 (T1U) (T2G) (T2G) (T2G) (EG) (EG) (A1G) (T1U)
                 (T1U) (T1U)
       Virtual   (T1U) (T1U) (T1U) (A1G) (T2G) (T2G) (T2G) (EG)
                 (EG) (T1U) (T1U) (T1U) (A1G) (T2G) (T2G) (T2G)
                 (EG) (EG)
 The electronic state is 1-A1G.
     Natural Orbital Coefficients:
                           1         2         3         4         5
     Eigenvalues --     2.00000   2.00000   2.00000   2.00000   2.00000
   1 1   Br 1S         -0.27117   0.73911   0.55078  -0.41201   0.00000
   2        2S          0.60929  -0.07664   0.19679   0.58047   0.00000
   3        3S         -0.93637   0.13972  -0.50391  -0.15353   0.00000
   4        4S         -0.17362  -0.24655   0.41151   0.22293   0.00000
   5        5S         -0.07780  -0.20071   0.35024   0.18127   0.00000
   6        6S         -0.01763  -0.02007   0.03273   0.01822   0.00000
   7        7PX         0.00000   0.00000   0.00000   0.00000   0.00004
   8        7PY         0.00000   0.00000   0.00000   0.00000   0.36831
   9        7PZ         0.00000   0.00000   0.00000   0.00000  -0.00154
  10        8PX         0.00000   0.00000   0.00000   0.00000   0.00005
  11        8PY         0.00000   0.00000   0.00000   0.00000   0.02162
  12        8PZ         0.00000   0.00000   0.00000   0.00000   0.07050
  13        9PX         0.00000   0.00000   0.00000   0.00000   0.00001
  14        9PY         0.00000   0.00000   0.00000   0.00000   0.39271
  15        9PZ         0.00000   0.00000   0.00000   0.00000   0.26956
  16       10PX         0.00000   0.00000   0.00000   0.00000   0.00001
  17       10PY         0.00000   0.00000   0.00000   0.00000   0.36773
  18       10PZ         0.00000   0.00000   0.00000   0.00000   0.25066
  19       11PX         0.00000   0.00000   0.00000   0.00000   0.00000
  20       11PY         0.00000   0.00000   0.00000   0.00000   0.12405
  21       11PZ         0.00000   0.00000   0.00000   0.00000   0.08482
  22       12D 0        0.04230  -0.33909   0.09850  -0.36538   0.00000
  23       12D+1        0.03691  -0.08685   0.05554   0.22992   0.00000
  24       12D-1       -0.00000   0.00000   0.00000  -0.00000   0.00000
  25       12D+2       -0.05961   0.42184  -0.22197   0.52505   0.00000
  26       12D-2        0.02205  -0.05161  -0.00469  -0.28343   0.00000
  27       13D 0        0.00082  -0.00658   0.00191  -0.00709   0.00000
  28       13D+1        0.00072  -0.00169   0.00108   0.00446   0.00000
  29       13D-1        0.00000  -0.00000   0.00000  -0.00000   0.00000
  30       13D+2       -0.00116   0.00819  -0.00431   0.01019   0.00000
  31       13D-2        0.00043  -0.00100  -0.00009  -0.00550   0.00000
  32       14D 0        0.00010  -0.00077   0.00022  -0.00083   0.00000
  33       14D+1        0.00008  -0.00020   0.00013   0.00052   0.00000
  34       14D-1       -0.00000  -0.00000  -0.00000   0.00000   0.00000
  35       14D+2       -0.00013   0.00095  -0.00050   0.00119   0.00000
  36       14D-2        0.00005  -0.00012  -0.00001  -0.00064   0.00000
                           6         7         8         9        10
     Eigenvalues --     2.00000   2.00000   2.00000   2.00000   2.00000
   1 1   Br 1S         -0.00385   0.15904   0.00000   0.00000   0.00000
   2        2S          0.10735  -0.23412   0.00000  -0.00000   0.00000
   3        3S          0.04943   0.11619   0.00000  -0.00000   0.00000
   4        4S          0.00807  -0.11301   0.00000   0.00000   0.00000
   5        5S          0.00281  -0.09446   0.00000   0.00000   0.00000
   6        6S          0.00088  -0.00909   0.00000   0.00000   0.00000
   7        7PX         0.00000   0.00000   0.26832   0.00000   0.00005
   8        7PY         0.00000   0.00000  -0.00002   0.00000  -0.21900
   9        7PZ         0.00000   0.00000  -0.00005   0.00000   0.24662
  10        8PX         0.00000   0.00000   0.44267   0.00000   0.00006
  11        8PY         0.00000   0.00000   0.00004   0.00000  -0.01594
  12        8PZ         0.00000   0.00000   0.00008   0.00000   0.03550
  13        9PX         0.00000   0.00000   0.38731   0.00000   0.00001
  14        9PY         0.00000   0.00000  -0.00001   0.00000  -0.24347
  15        9PZ         0.00000   0.00000  -0.00005   0.00000   0.41998
  16       10PX         0.00000   0.00000   0.35197   0.00000   0.00000
  17       10PY         0.00000   0.00000  -0.00002   0.00000  -0.22791
  18       10PZ         0.00000   0.00000  -0.00005   0.00000   0.39275
  19       11PX         0.00000   0.00000   0.12010   0.00000   0.00000
  20       11PY         0.00000   0.00000  -0.00000   0.00000  -0.07689
  21       11PZ         0.00000   0.00000  -0.00002   0.00000   0.13257
  22       12D 0       -0.01403   0.01488   0.00000  -0.00000   0.00000
  23       12D+1        0.44301   0.85119   0.00000  -0.00000   0.00000
  24       12D-1        0.00000  -0.00000   0.00000   0.99492   0.00000
  25       12D+2        0.15596  -0.21169   0.00000   0.00000   0.00000
  26       12D-2        0.86665  -0.37444   0.00000  -0.00000   0.00000
  27       13D 0       -0.00027   0.00029   0.00000  -0.00000   0.00000
  28       13D+1        0.00860   0.01653   0.00000  -0.00000   0.00000
  29       13D-1        0.00000   0.00000   0.00000   0.01932   0.00000
  30       13D+2        0.00303  -0.00411   0.00000   0.00000   0.00000
  31       13D-2        0.01683  -0.00727   0.00000  -0.00000   0.00000
  32       14D 0       -0.00003   0.00003   0.00000  -0.00000   0.00000
  33       14D+1        0.00100   0.00193   0.00000  -0.00000   0.00000
  34       14D-1        0.00000  -0.00000   0.00000   0.00225   0.00000
  35       14D+2        0.00035  -0.00048   0.00000   0.00000   0.00000
  36       14D-2        0.00196  -0.00085   0.00000  -0.00000   0.00000
                          11        12        13        14        15
     Eigenvalues --     2.00000   2.00000   2.00000   2.00000   2.00000
   1 1   Br 1S          0.06532   0.00000   0.00000  -0.03430   0.00000
   2        2S          0.14999   0.00000   0.00000   0.69346   0.00000
   3        3S          0.08244   0.00000   0.00000   0.35317   0.00000
   4        4S         -0.03552   0.00000   0.00000  -0.12472   0.00000
   5        5S         -0.03333   0.00000   0.00000  -0.12136   0.00000
   6        6S         -0.00263   0.00000   0.00000  -0.00900   0.00000
   7        7PX         0.00000   0.72457   0.00002   0.00000  -0.00005
   8        7PY         0.00000  -0.00006   0.97096   0.00000   0.11025
   9        7PZ         0.00000  -0.00015   0.17414   0.00000  -1.03538
  10        8PX         0.00000   0.22958   0.00004   0.00000  -0.00011
  11        8PY         0.00000   0.00007  -0.27872   0.00000  -0.07810
  12        8PZ         0.00000   0.00017  -0.02026   0.00000   0.53177
  13        9PX         0.00000  -0.29224  -0.00002   0.00000   0.00004
  14        9PY         0.00000  -0.00001  -0.17725   0.00000  -0.08207
  15        9PZ         0.00000  -0.00004  -0.02097   0.00000   0.04208
  16       10PX         0.00000  -0.27843  -0.00002   0.00000   0.00004
  17       10PY         0.00000  -0.00001  -0.15764   0.00000  -0.07474
  18       10PZ         0.00000  -0.00005  -0.01889   0.00000   0.02463
  19       11PX         0.00000  -0.09347  -0.00001   0.00000   0.00001
  20       11PY         0.00000  -0.00000  -0.05441   0.00000  -0.02551
  21       11PZ         0.00000  -0.00001  -0.00650   0.00000   0.01035
  22       12D 0        0.85370   0.00000   0.00000   0.02580   0.00000
  23       12D+1        0.04939   0.00000   0.00000  -0.04215   0.00000
  24       12D-1       -0.00000   0.00000   0.00000  -0.00000   0.00000
  25       12D+2        0.44126   0.00000   0.00000  -0.46857   0.00000
  26       12D-2       -0.12095   0.00000   0.00000  -0.02091   0.00000
  27       13D 0        0.01657   0.00000   0.00000   0.00050   0.00000
  28       13D+1        0.00096   0.00000   0.00000  -0.00082   0.00000
  29       13D-1        0.00000   0.00000   0.00000  -0.00000   0.00000
  30       13D+2        0.00857   0.00000   0.00000  -0.00910   0.00000
  31       13D-2       -0.00235   0.00000   0.00000  -0.00041   0.00000
  32       14D 0        0.00193   0.00000   0.00000   0.00006   0.00000
  33       14D+1        0.00011   0.00000   0.00000  -0.00010   0.00000
  34       14D-1       -0.00000   0.00000   0.00000  -0.00000   0.00000
  35       14D+2        0.00100   0.00000   0.00000  -0.00106   0.00000
  36       14D-2       -0.00027   0.00000   0.00000  -0.00005   0.00000
                          16        17        18        19        20
     Eigenvalues --     2.00000   2.00000   2.00000   0.00000   0.00000
   1 1   Br 1S          0.00000   0.00000   0.00000  -0.00280   0.00000
   2        2S          0.00000   0.00000   0.00000   0.02216   0.00000
   3        3S          0.00000   0.00000   0.00000  -0.00557   0.00000
   4        4S          0.00000   0.00000   0.00000   0.17042   0.00000
   5        5S          0.00000   0.00000   0.00000  -0.08386   0.00000
   6        6S          0.00000   0.00000   0.00000  -0.11505   0.00000
   7        7PX        -0.75893  -0.00000  -0.00007   0.00000   0.00000
   8        7PY        -0.00003  -0.13074  -0.13169   0.00000  -0.04451
   9        7PZ        -0.00008  -0.06889   0.07106   0.00000  -0.00252
  10        8PX         0.97582  -0.00001  -0.00011   0.00000  -0.00000
  11        8PY         0.00003   0.92964   0.50213   0.00000   0.02586
  12        8PZ         0.00008  -0.42436   0.85521   0.00000   0.03198
  13        9PX        -0.19684   0.00000   0.00001   0.00000   0.00000
  14        9PY        -0.00000  -0.14272  -0.04626   0.00000  -0.58462
  15        9PZ        -0.00001   0.07051  -0.13391   0.00000   0.11582
  16       10PX        -0.20988   0.00000   0.00002   0.00000  -0.00000
  17       10PY        -0.00000  -0.15717  -0.05610   0.00000   1.16862
  18       10PZ        -0.00001   0.07658  -0.14677   0.00000  -0.65255
  19       11PX        -0.06746   0.00000   0.00000   0.00000  -0.00000
  20       11PY        -0.00000  -0.05003  -0.01728   0.00000  -0.99952
  21       11PZ        -0.00000   0.02451  -0.04682   0.00000   0.86142
  22       12D 0        0.00000   0.00000   0.00000   0.03511   0.00000
  23       12D+1        0.00000   0.00000   0.00000  -0.16596   0.00000
  24       12D-1        0.00000   0.00000   0.00000   0.00097   0.00000
  25       12D+2        0.00000   0.00000   0.00000  -0.11671   0.00000
  26       12D-2        0.00000   0.00000   0.00000   0.05096   0.00000
  27       13D 0        0.00000   0.00000   0.00000  -0.09384   0.00000
  28       13D+1        0.00000   0.00000   0.00000   0.99916   0.00000
  29       13D-1        0.00000   0.00000   0.00000  -0.00513   0.00000
  30       13D+2        0.00000   0.00000   0.00000   0.31576   0.00000
  31       13D-2        0.00000   0.00000   0.00000  -0.17364   0.00000
  32       14D 0        0.00000   0.00000   0.00000  -0.10926   0.00000
  33       14D+1        0.00000   0.00000   0.00000  -1.01036   0.00000
  34       14D-1        0.00000   0.00000   0.00000   0.00397   0.00000
  35       14D+2        0.00000   0.00000   0.00000   0.35256   0.00000
  36       14D-2        0.00000   0.00000   0.00000  -0.05569   0.00000
                          21        22        23        24        25
     Eigenvalues --     0.00000   0.00000   0.00000   0.00000   0.00000
   1 1   Br 1S          0.00000   0.00567  -0.00011   0.00663   0.00798
   2        2S          0.00000  -0.01789   0.00066  -0.10713  -0.15545
   3        3S          0.00000   0.06089  -0.00062  -0.08742  -0.15404
   4        4S          0.00000  -0.07933   0.00463  -0.94219  -1.39526
   5        5S          0.00000  -0.38476   0.00115   1.32312   2.13807
   6        6S          0.00000   0.59625  -0.00752  -0.46458  -0.91681
   7        7PX         0.00000   0.00000   0.00000   0.00000   0.00000
   8        7PY        -0.10418   0.00000   0.00000   0.00000   0.00000
   9        7PZ        -0.04359   0.00000   0.00000   0.00000   0.00000
  10        8PX        -0.00000   0.00000   0.00000   0.00000   0.00000
  11        8PY         0.12591   0.00000   0.00000   0.00000   0.00000
  12        8PZ         0.03094   0.00000   0.00000   0.00000   0.00000
  13        9PX         0.00000   0.00000   0.00000   0.00000   0.00000
  14        9PY        -1.04936   0.00000   0.00000   0.00000   0.00000
  15        9PZ        -0.54523   0.00000   0.00000   0.00000   0.00000
  16       10PX        -0.00000   0.00000   0.00000   0.00000   0.00000
  17       10PY         1.19564   0.00000   0.00000   0.00000   0.00000
  18       10PZ         1.01244   0.00000   0.00000   0.00000   0.00000
  19       11PX        -0.00000   0.00000   0.00000   0.00000   0.00000
  20       11PY        -0.37287   0.00000   0.00000   0.00000   0.00000
  21       11PZ        -0.81014   0.00000   0.00000   0.00000   0.00000
  22       12D 0        0.00000  -0.06601   0.00015  -0.00817  -0.12791
  23       12D+1        0.00000  -0.08193   0.00114  -0.03169  -0.11288
  24       12D-1        0.00000  -0.00056  -0.22413  -0.00025  -0.00024
  25       12D+2        0.00000  -0.05486  -0.00082   0.03963   0.08141
  26       12D-2        0.00000  -0.21294  -0.00013   0.16263  -0.02150
  27       13D 0        0.00000   0.12992  -0.00076  -0.29174   0.78368
  28       13D+1        0.00000   0.29116  -0.00553   0.09137   0.46429
  29       13D-1        0.00000   0.00211   0.71720   0.00119   0.00105
  30       13D+2        0.00000   0.16000   0.00137  -0.28266  -0.41496
  31       13D-2        0.00000   1.07098  -0.00172  -0.75780  -0.06144
  32       14D 0        0.00000   0.33313   0.00055   0.88701  -0.81600
  33       14D+1        0.00000   0.05651   0.00330   0.08023  -0.09560
  34       14D-1        0.00000   0.00010   0.37257  -0.00069  -0.00041
  35       14D+2        0.00000   0.13395   0.00478   0.36240   0.28911
  36       14D-2        0.00000  -0.71650   0.00610   0.38197   0.39359
                          26        27        28        29        30
     Eigenvalues --     0.00000   0.00000   0.00000   0.00000  -0.00000
   1 1   Br 1S         -0.00542   0.00000   0.00000   0.00202   0.00000
   2        2S         -0.02773   0.00000   0.00000   0.06067   0.00000
   3        3S         -0.14076   0.00000   0.00000   0.14511   0.00000
   4        4S         -0.36598   0.00000   0.00000   0.63239   0.00000
   5        5S          1.29030   0.00000   0.00000  -1.51641   0.00000
   6        6S         -1.17462   0.00000   0.00000   1.11646   0.00000
   7        7PX         0.00000  -0.07929   0.00000   0.00000  -0.11267
   8        7PY         0.00000   0.00000   0.01029   0.00000   0.00000
   9        7PZ         0.00000  -0.00000  -0.12319   0.00000  -0.00000
  10        8PX         0.00000   0.13747  -0.00000   0.00000   0.11790
  11        8PY         0.00000  -0.00000   0.00005   0.00000  -0.00000
  12        8PZ         0.00000   0.00000   0.17159   0.00000  -0.00000
  13        9PX         0.00000  -0.59525   0.00000   0.00000  -1.22404
  14        9PY         0.00000   0.00001   0.16452   0.00000   0.00000
  15        9PZ         0.00000  -0.00001  -1.12990   0.00000  -0.00000
  16       10PX         0.00000  -0.07128   0.00000   0.00000   1.72328
  17       10PY         0.00000  -0.00000  -0.41200   0.00000   0.00000
  18       10PZ         0.00000   0.00001   0.87862   0.00000   0.00000
  19       11PX         0.00000   0.96946  -0.00001   0.00000  -0.95274
  20       11PY         0.00000  -0.00000   0.41226   0.00000  -0.00000
  21       11PZ         0.00000  -0.00000   0.24261   0.00000  -0.00000
  22       12D 0       -0.14078   0.00000   0.00000  -0.15871   0.00000
  23       12D+1        0.01309   0.00000   0.00000   0.00697   0.00000
  24       12D-1        0.00013   0.00000   0.00000  -0.00011   0.00000
  25       12D+2       -0.13893   0.00000   0.00000  -0.10579   0.00000
  26       12D-2        0.01181   0.00000   0.00000   0.07697   0.00000
  27       13D 0        0.62028   0.00000   0.00000   0.70107   0.00000
  28       13D+1       -0.10457   0.00000   0.00000   0.07332   0.00000
  29       13D-1       -0.00058   0.00000   0.00000   0.00045   0.00000
  30       13D+2        0.79227   0.00000   0.00000   0.59292   0.00000
  31       13D-2        0.13099   0.00000   0.00000  -0.56924   0.00000
  32       14D 0       -0.23248   0.00000   0.00000  -0.26703   0.00000
  33       14D+1        0.15052   0.00000   0.00000  -0.27437   0.00000
  34       14D-1        0.00021   0.00000   0.00000  -0.00014   0.00000
  35       14D+2       -0.72447   0.00000   0.00000  -0.52320   0.00000
  36       14D-2       -0.48338   0.00000   0.00000   0.75942   0.00000
                          31        32        33        34        35
     Eigenvalues --    -0.00000  -0.00000  -0.00000  -0.00000  -0.00000
   1 1   Br 1S          0.00521   0.00000  -0.01363  -0.00321  -0.00866
   2        2S         -0.10039   0.00000   0.16600   0.03461   0.03447
   3        3S         -0.09852   0.00000   0.07983   0.01057  -0.07985
   4        4S         -0.90010   0.00000   1.40244   0.28611   0.19159
   5        5S          1.37307   0.00000  -1.60381  -0.28563   0.44062
   6        6S         -0.58348   0.00000   0.22330  -0.00767  -0.81431
   7        7PX         0.00000  -0.00000   0.00000   0.00000   0.00000
   8        7PY         0.00000  -0.07772   0.00000   0.00000   0.00000
   9        7PZ         0.00000   0.04358   0.00000   0.00000   0.00000
  10        8PX         0.00000   0.00000   0.00000   0.00000   0.00000
  11        8PY         0.00000   0.12759   0.00000   0.00000   0.00000
  12        8PZ         0.00000  -0.03708   0.00000   0.00000   0.00000
  13        9PX         0.00000  -0.00001   0.00000   0.00000   0.00000
  14        9PY         0.00000  -0.61853   0.00000   0.00000   0.00000
  15        9PZ         0.00000   0.51500   0.00000   0.00000   0.00000
  16       10PX         0.00000   0.00000   0.00000   0.00000   0.00000
  17       10PY         0.00000   0.09910   0.00000   0.00000   0.00000
  18       10PZ         0.00000  -0.86716   0.00000   0.00000   0.00000
  19       11PX         0.00000   0.00001   0.00000   0.00000   0.00000
  20       11PY         0.00000   0.73453   0.00000   0.00000   0.00000
  21       11PZ         0.00000   0.62476   0.00000   0.00000   0.00000
  22       12D 0        0.16368   0.00000  -0.00059   0.02327  -0.03681
  23       12D+1       -0.05793   0.00000  -0.17963   0.05994   0.09098
  24       12D-1        0.00001   0.00000  -0.00003   0.00218   0.00161
  25       12D+2       -0.12748   0.00000   0.07172  -0.13459   0.02971
  26       12D-2       -0.04922   0.00000   0.01346   0.03551  -0.10458
  27       13D 0       -0.81942   0.00000  -0.07463  -0.03264   0.02595
  28       13D+1        0.27893   0.00000   0.69040  -0.57997  -0.25648
  29       13D-1       -0.00002   0.00000   0.00013  -0.00907  -0.00493
  30       13D+2        0.79614   0.00000  -0.22862   0.40802  -0.26591
  31       13D-2        0.04637   0.00000  -0.14466  -0.29528   0.27074
  32       14D 0        0.54032   0.00000   0.21125  -0.15363   0.31348
  33       14D+1       -0.16074   0.00000  -0.01901   0.96688  -0.24647
  34       14D-1        0.00001   0.00000  -0.00003   0.00209  -0.00328
  35       14D+2       -0.85471   0.00000  -0.12162   0.28600   0.42006
  36       14D-2        0.38718   0.00000   0.25680   0.44012   0.34943
                          36
     Eigenvalues --    -0.00000
   1 1   Br 1S         -0.00003
   2        2S          0.00029
   3        3S          0.00007
   4        4S          0.00237
   5        5S         -0.00227
   6        6S         -0.00019
   7        7PX         0.00000
   8        7PY         0.00000
   9        7PZ         0.00000
  10        8PX         0.00000
  11        8PY         0.00000
  12        8PZ         0.00000
  13        9PX         0.00000
  14        9PY         0.00000
  15        9PZ         0.00000
  16       10PX         0.00000
  17       10PY         0.00000
  18       10PZ         0.00000
  19       11PX         0.00000
  20       11PY         0.00000
  21       11PZ         0.00000
  22       12D 0        0.00029
  23       12D+1       -0.00024
  24       12D-1       -0.21324
  25       12D+2       -0.00086
  26       12D-2        0.00031
  27       13D 0       -0.00062
  28       13D+1        0.00089
  29       13D-1        1.32870
  30       13D+2        0.00279
  31       13D-2       -0.00146
  32       14D 0       -0.00130
  33       14D+1        0.00007
  34       14D-1       -1.42145
  35       14D+2        0.00138
  36       14D-2        0.00079
          Condensed to atoms (all electrons):
               1
     1  Br  36.000000
          Atomic-Atomic Spin Densities.
               1
     1  Br   0.000000
 Mulliken charges and spin densities:
               1          2
     1  Br  -1.000000   0.000000
 Sum of Mulliken charges =  -1.00000   0.00000
 Mulliken charges and spin densities with hydrogens summed into heavy atoms:
               1          2
     1  Br  -1.000000   0.000000

 Bonding Mulliken population analysis:
          Bonding Condensed to atoms (all electrons):
               1
     1  Br   0.000000
          Bonding Atomic-Atomic Spin Densities.
               1
     1  Br   0.000000
 Bonding Mulliken charges and spin densities:
               1          2
     1  Br  35.000000   0.000000
 Sum of Bonding Mulliken charges =  35.00000   0.00000
 Bonding Mulliken charges and spin densities with hydrogens summed into heavy atoms:
               1          2
     1  Br  35.000000   0.000000
 Electronic spatial extent (au):  <R**2>=             54.6246
 Charge=             -1.0000 electrons
 Dipole moment (field-independent basis, Debye):
    X=              0.0000    Y=              0.0000    Z=              0.0000  Tot=              0.0000
 Quadrupole moment (field-independent basis, Debye-Ang):
   XX=            -24.4906   YY=            -24.4906   ZZ=            -24.4906
   XY=              0.0000   XZ=              0.0000   YZ=              0.0000
 Traceless Quadrupole moment (field-independent basis, Debye-Ang):
   XX=             -0.0000   YY=             -0.0000   ZZ=              0.0000
   XY=              0.0000   XZ=              0.0000   YZ=              0.0000
 Octapole moment (field-independent basis, Debye-Ang**2):
  XXX=              0.0000  YYY=              0.0000  ZZZ=              0.0000  XYY=              0.0000
  XXY=              0.0000  XXZ=              0.0000  XZZ=              0.0000  YZZ=              0.0000
  YYZ=              0.0000  XYZ=              0.0000
 Hexadecapole moment (field-independent basis, Debye-Ang**3):
 XXXX=            -48.9604 YYYY=            -48.9604 ZZZZ=            -48.9604 XXXY=              0.0000
 XXXZ=              0.0000 YYYX=              0.0000 YYYZ=              0.0000 ZZZX=              0.0000
 ZZZY=              0.0000 XXYY=            -16.3201 XXZZ=            -16.3201 YYZZ=            -16.3201
 XXYZ=              0.0000 YYXZ=              0.0000 ZZXY=              0.0000
 N-N= 0.000000000000D+00 E-N=-6.162465843824D+03  KE= 2.570486884419D+03
 Symmetry AG   KE= 1.574389367142D+03
 Symmetry B1G  KE= 4.271280757495D+01
 Symmetry B2G  KE= 4.271280757495D+01
 Symmetry B3G  KE= 4.271280757495D+01
 Symmetry AU   KE= 0.000000000000D+00
 Symmetry B1U  KE= 2.893196981840D+02
 Symmetry B2U  KE= 2.893196981840D+02
 Symmetry B3U  KE= 2.893196981840D+02
 Symmetry AG   SP= 9.166469794601D-15
 Symmetry B1G  SP=-3.179541915367D-16
 Symmetry B2G  SP=-3.145828826673D-16
 Symmetry B3G  SP=-8.892875812627D-17
 Symmetry AU   SP= 0.000000000000D+00
 Symmetry B1U  SP=-7.781225802324D-17
 Symmetry B2U  SP=-1.262945642642D-16
 Symmetry B3U  SP= 1.390557661781D-16

 Atomic contributions to Alpha molecular orbitals:
 Alpha occ 1 OE=-482.589 is Br1-s=1.0000
 Alpha occ 2 OE=-62.240 is Br1-s=1.0000
 Alpha occ 3 OE=-56.055 is Br1-p=1.0000
 Alpha occ 4 OE=-56.055 is Br1-p=1.0000
 Alpha occ 5 OE=-56.055 is Br1-p=1.0000
 Alpha occ 6 OE=-8.419 is Br1-s=1.0000
 Alpha occ 7 OE=-6.241 is Br1-p=1.0000
 Alpha occ 8 OE=-6.241 is Br1-p=1.0000
 Alpha occ 9 OE=-6.241 is Br1-p=1.0000
 Alpha occ 10 OE=-2.352 is Br1-d=1.0000
 Alpha occ 11 OE=-2.352 is Br1-d=1.0000
 Alpha occ 12 OE=-2.352 is Br1-d=1.0000
 Alpha occ 13 OE=-2.352 is Br1-d=1.0000
 Alpha occ 14 OE=-2.352 is Br1-d=1.0000
 Alpha occ 15 OE=-0.468 is Br1-s=1.0000
 Alpha occ 16 OE=-0.031 is Br1-p=1.0000
 Alpha occ 17 OE=-0.031 is Br1-p=1.0000
 Alpha occ 18 OE=-0.031 is Br1-p=1.0000
 Alpha vir 19 OE=0.229 is Br1-p=1.0000
 Alpha vir 20 OE=0.229 is Br1-p=1.0000
 Alpha vir 21 OE=0.229 is Br1-p=1.0000
 Alpha vir 22 OE=0.233 is Br1-s=1.0000
 Alpha vir 23 OE=0.507 is Br1-d=1.0000
 Alpha vir 24 OE=0.507 is Br1-d=1.0000
 Alpha vir 25 OE=0.507 is Br1-d=1.0000
 Alpha vir 26 OE=0.507 is Br1-d=1.0000
 Alpha vir 27 OE=0.507 is Br1-d=1.0000
 Alpha vir 28 OE=0.899 is Br1-p=1.0000
 Alpha vir 29 OE=0.899 is Br1-p=1.0000
 Alpha vir 30 OE=0.899 is Br1-p=1.0000
 Alpha vir 31 OE=0.984 is Br1-s=1.0000
 Alpha vir 32 OE=1.236 is Br1-d=1.0000
 Alpha vir 33 OE=1.236 is Br1-d=1.0000
 Alpha vir 34 OE=1.236 is Br1-d=1.0000
 Alpha vir 35 OE=1.236 is Br1-d=1.0000
 Alpha vir 36 OE=1.236 is Br1-d=1.0000

 Atomic contributions to Beta  molecular orbitals:
 Beta  occ 1 OE=-482.589 is Br1-s=1.0000
 Beta  occ 2 OE=-62.240 is Br1-s=1.0000
 Beta  occ 3 OE=-56.055 is Br1-p=1.0000
 Beta  occ 4 OE=-56.055 is Br1-p=1.0000
 Beta  occ 5 OE=-56.055 is Br1-p=1.0000
 Beta  occ 6 OE=-8.419 is Br1-s=1.0000
 Beta  occ 7 OE=-6.241 is Br1-p=1.0000
 Beta  occ 8 OE=-6.241 is Br1-p=1.0000
 Beta  occ 9 OE=-6.241 is Br1-p=1.0000
 Beta  occ 10 OE=-2.352 is Br1-d=1.0000
 Beta  occ 11 OE=-2.352 is Br1-d=1.0000
 Beta  occ 12 OE=-2.352 is Br1-d=1.0000
 Beta  occ 13 OE=-2.352 is Br1-d=1.0000
 Beta  occ 14 OE=-2.352 is Br1-d=1.0000
 Beta  occ 15 OE=-0.468 is Br1-s=1.0000
 Beta  occ 16 OE=-0.031 is Br1-p=1.0000
 Beta  occ 17 OE=-0.031 is Br1-p=1.0000
 Beta  occ 18 OE=-0.031 is Br1-p=1.0000
 Beta  vir 19 OE=0.229 is Br1-p=1.0000
 Beta  vir 20 OE=0.229 is Br1-p=1.0000
 Beta  vir 21 OE=0.229 is Br1-p=1.0000
 Beta  vir 22 OE=0.233 is Br1-s=1.0000
 Beta  vir 23 OE=0.507 is Br1-d=1.0000
 Beta  vir 24 OE=0.507 is Br1-d=1.0000
 Beta  vir 25 OE=0.507 is Br1-d=1.0000
 Beta  vir 26 OE=0.507 is Br1-d=1.0000
 Beta  vir 27 OE=0.507 is Br1-d=1.0000
 Beta  vir 28 OE=0.899 is Br1-p=1.0000
 Beta  vir 29 OE=0.899 is Br1-p=1.0000
 Beta  vir 30 OE=0.899 is Br1-p=1.0000
 Beta  vir 31 OE=0.984 is Br1-s=1.0000
 Beta  vir 32 OE=1.236 is Br1-d=1.0000
 Beta  vir 33 OE=1.236 is Br1-d=1.0000
 Beta  vir 34 OE=1.236 is Br1-d=1.0000
 Beta  vir 35 OE=1.236 is Br1-d=1.0000
 Beta  vir 36 OE=1.236 is Br1-d=1.0000
 
                          Isotropic Fermi Contact Couplings
        Atom                 a.u.       MegaHertz       Gauss      10(-4) cm-1
     1  Br(79)            -0.00000      -0.00000      -0.00000      -0.00000
 --------------------------------------------------------
       Center         ----  Spin Dipole Couplings  ----
                      3XX-RR        3YY-RR        3ZZ-RR
 --------------------------------------------------------
     1   Atom        0.000000      0.000000      0.000000
 --------------------------------------------------------
                        XY            XZ            YZ
 --------------------------------------------------------
     1   Atom        0.000000      0.000000      0.000000
 --------------------------------------------------------


 ---------------------------------------------------------------------------------
              Anisotropic Spin Dipole Couplings in Principal Axis System
 ---------------------------------------------------------------------------------

       Atom             a.u.   MegaHertz   Gauss  10(-4) cm-1        Axes

              Baa     0.0000     0.000     0.000     0.000  1.0000  0.0000  0.0000
     1 Br(79) Bbb     0.0000     0.000     0.000     0.000 -0.0000  1.0000  0.0000
              Bcc     0.0000     0.000     0.000     0.000  0.0000  0.0000  1.0000
 

 ---------------------------------------------------------------------------------

 No NMR shielding tensors so no spin-rotation constants.
 Leave Link  601 at Mon Mar 11 17:58:17 2019, MaxMem=   524288000 cpu:               1.8 elap:               0.4
 (Enter /home/ubuntu/g16/l602.exe)
 FitSet:  NAtFit=     1 NAtPot=     1 NAtFrz=     0 MDM=     5 TotChg=  -1.00000
 Merz-Kollman atomic radii used.

 **********************************************************************

            Electrostatic Properties Using The SCF Density

 **********************************************************************

       Atomic Center    1 is at   0.000000  0.000000  0.000000
     715 points will be used for fitting atomic charges
 Fitting point charges to electrostatic potential
 Charges from ESP fit, RMS=   0.00062 RRMS=   0.00463:
 ESP charges:
               1
     1  Br  -1.000000
 Sum of ESP charges =  -1.00000
 ESP charges with hydrogens summed into heavy atoms:
               1
     1  Br  -1.000000
 Charge=  -1.00000 Dipole=     0.0000     0.0000     0.0000 Tot=     0.0000
 -----------------------------------------------------------------

              Electrostatic Properties (Atomic Units)

 -----------------------------------------------------------------
    Center     Electric         -------- Electric Field --------
               Potential          X             Y             Z
 -----------------------------------------------------------------
    1 Atom   -176.070451
 -----------------------------------------------------------------
 Leave Link  602 at Mon Mar 11 17:58:17 2019, MaxMem=   524288000 cpu:               0.3 elap:               0.1
 (Enter /home/ubuntu/g16/l607.exe)
 ******************************Gaussian NBO Version 3.1******************************
             N A T U R A L   A T O M I C   O R B I T A L   A N D
          N A T U R A L   B O N D   O R B I T A L   A N A L Y S I S
 ******************************Gaussian NBO Version 3.1******************************

       /RESON  / : Allow strongly delocalized NBO set
       /BNDIDX / : Print bond indices based on the NAO density matrix

 Analyzing the SCF density

 Job title: Br-_UB3LYP-aug-cc-pVDZ                                          

 Storage needed:      4194 in NPA,      6842 in NBO ( 524287991 available)
 GSVD:  LWork=         504 too small for GESVD, short by        1026 words or        1026 for optimal perf.
 GSVD:  LWork=         504 too small for GESVD, short by        1026 words or        1026 for optimal perf.


 NATURAL POPULATIONS:  Natural atomic orbital occupancies 
                                                          
   NAO  Atom  No  lang   Type(AO)    Occupancy
 --------------------------------------------
     1   Br    1  S      Cor( 1S)     2.00000
     2   Br    1  S      Cor( 2S)     2.00000
     3   Br    1  S      Cor( 3S)     2.00000
     4   Br    1  S      Val( 4S)     2.00000
     5   Br    1  S      Ryd( 6S)     0.00000
     6   Br    1  S      Ryd( 5S)     0.00000
     7   Br    1  px     Cor( 2p)     2.00000
     8   Br    1  px     Cor( 3p)     2.00000
     9   Br    1  px     Val( 4p)     2.00000
    10   Br    1  px     Ryd( 5p)     0.00000
    11   Br    1  px     Ryd( 6p)     0.00000
    12   Br    1  py     Cor( 2p)     2.00000
    13   Br    1  py     Cor( 3p)     2.00000
    14   Br    1  py     Val( 4p)     2.00000
    15   Br    1  py     Ryd( 6p)     0.00000
    16   Br    1  py     Ryd( 5p)     0.00000
    17   Br    1  pz     Cor( 2p)     2.00000
    18   Br    1  pz     Cor( 3p)     2.00000
    19   Br    1  pz     Val( 4p)     2.00000
    20   Br    1  pz     Ryd( 6p)     0.00000
    21   Br    1  pz     Ryd( 5p)     0.00000
    22   Br    1  dxy    Cor( 3d)     2.00000
    23   Br    1  dxy    Ryd( 5d)     0.00000
    24   Br    1  dxy    Ryd( 4d)     0.00000
    25   Br    1  dxz    Cor( 3d)     2.00000
    26   Br    1  dxz    Ryd( 5d)     0.00000
    27   Br    1  dxz    Ryd( 4d)     0.00000
    28   Br    1  dyz    Cor( 3d)     2.00000
    29   Br    1  dyz    Ryd( 5d)     0.00000
    30   Br    1  dyz    Ryd( 4d)     0.00000
    31   Br    1  dx2y2  Cor( 3d)     2.00000
    32   Br    1  dx2y2  Ryd( 4d)     0.00000
    33   Br    1  dx2y2  Ryd( 5d)     0.00000
    34   Br    1  dz2    Cor( 3d)     2.00000
    35   Br    1  dz2    Ryd( 4d)     0.00000
    36   Br    1  dz2    Ryd( 5d)     0.00000


 Summary of Natural Population Analysis:                  
                                                          
                                       Natural Population 
                Natural  -----------------------------------------------
    Atom  No    Charge         Core      Valence    Rydberg      Total
 -----------------------------------------------------------------------
     Br    1   -1.00000     28.00000     8.00000    0.00000    36.00000
 =======================================================================
   * Total *   -1.00000     28.00000     8.00000    0.00000    36.00000

                                 Natural Population      
 --------------------------------------------------------
   Core                      28.00000 (100.0000% of  28)
   Valence                    8.00000 (100.0000% of   8)
   Natural Minimal Basis     36.00000 (100.0000% of  36)
   Natural Rydberg Basis      0.00000 (  0.0000% of  36)
 --------------------------------------------------------

    Atom  No          Natural Electron Configuration
 ----------------------------------------------------------------------------
     Br    1      [core]4S( 2.00)4p( 6.00)


 Wiberg bond index matrix in the NAO basis:                                    

     Atom    1
     ---- ------
   1. Br  0.0000


 Wiberg bond index, Totals by atom:                                            

     Atom    1
     ---- ------
   1. Br  0.0000


 Atom-atom overlap-weighted NAO bond order:                                    

     Atom    1
     ---- ------
   1. Br  0.0000


 Atom-atom overlap-weighted NAO bond order, Totals by atom:                    

     Atom    1
     ---- ------
   1. Br  0.0000


 MO bond order:                                                                

     Atom    1
     ---- ------
   1. Br  0.0000


 MO atomic valencies:                                                          

     Atom    1
     ---- ------
   1. Br  0.0000


 ***************************************************
 *******         Alpha spin orbitals         *******
 ***************************************************


 NATURAL POPULATIONS:  Natural atomic orbital occupancies 
                                                          
   NAO  Atom  No  lang   Type(AO)    Occupancy      Energy
 ----------------------------------------------------------
     1   Br    1  S      Cor( 4S)     1.00000      -6.90689
     2   Br    1  S      Cor( 3S)     1.00000     -24.63122
     3   Br    1  S      Val( 1S)     1.00000    -427.75855
     4   Br    1  S      Cor( 2S)     1.00000     -94.41862
     5   Br    1  S      Ryd( 6S)     0.00000       0.92553
     6   Br    1  S      Ryd( 5S)     0.00000       0.29176
     7   Br    1  px     Cor( 4p)     1.00000      -1.54435
     8   Br    1  px     Cor( 2p)     1.00000     -40.49178
     9   Br    1  px     Val( 3p)     1.00000     -20.28980
    10   Br    1  px     Ryd( 6p)     0.00000       0.63414
    11   Br    1  px     Ryd( 5p)     0.00000       0.49388
    12   Br    1  py     Cor( 4p)     1.00000      -1.54435
    13   Br    1  py     Cor( 2p)     1.00000     -40.49178
    14   Br    1  py     Val( 3p)     1.00000     -20.28980
    15   Br    1  py     Ryd( 6p)     0.00000       0.63414
    16   Br    1  py     Ryd( 5p)     0.00000       0.49388
    17   Br    1  pz     Cor( 4p)     1.00000      -1.54435
    18   Br    1  pz     Cor( 2p)     1.00000     -40.49178
    19   Br    1  pz     Val( 3p)     1.00000     -20.28980
    20   Br    1  pz     Ryd( 6p)     0.00000       0.63414
    21   Br    1  pz     Ryd( 5p)     0.00000       0.49388
    22   Br    1  dxy    Cor( 3d)     1.00000      -2.35240
    23   Br    1  dxy    Ryd( 5d)     0.00000       1.15719
    24   Br    1  dxy    Ryd( 4d)     0.00000       0.58611
    25   Br    1  dxz    Cor( 3d)     1.00000      -2.35240
    26   Br    1  dxz    Ryd( 5d)     0.00000       1.15719
    27   Br    1  dxz    Ryd( 4d)     0.00000       0.58611
    28   Br    1  dyz    Cor( 3d)     1.00000      -2.35240
    29   Br    1  dyz    Ryd( 5d)     0.00000       1.15719
    30   Br    1  dyz    Ryd( 4d)     0.00000       0.58611
    31   Br    1  dx2y2  Cor( 3d)     1.00000      -2.35240
    32   Br    1  dx2y2  Ryd( 5d)     0.00000       1.15719
    33   Br    1  dx2y2  Ryd( 4d)     0.00000       0.58611
    34   Br    1  dz2    Cor( 3d)     1.00000      -2.35240
    35   Br    1  dz2    Ryd( 5d)     0.00000       1.15719
    36   Br    1  dz2    Ryd( 4d)     0.00000       0.58611

 WARNING:  Population inversion found on atom Br    1


 Summary of Natural Population Analysis:                  
                                                          
                                       Natural Population 
                Natural  -----------------------------------------------
    Atom  No    Charge         Core      Valence    Rydberg      Total
 -----------------------------------------------------------------------
     Br    1   -0.50000     14.00000     4.00000    0.00000    18.00000
 =======================================================================
   * Total *   -0.50000     14.00000     4.00000    0.00000    18.00000

                                 Natural Population      
 --------------------------------------------------------
   Core                      14.00000 (100.0000% of  14)
   Valence                    4.00000 (100.0000% of   4)
   Natural Minimal Basis     18.00000 (100.0000% of  18)
   Natural Rydberg Basis      0.00000 (  0.0000% of  18)
 --------------------------------------------------------

    Atom  No          Natural Electron Configuration
 ----------------------------------------------------------------------------
     Br    1      [core]


 Wiberg bond index matrix in the NAO basis:                                    

     Atom    1
     ---- ------
   1. Br  0.0000


 Wiberg bond index, Totals by atom:                                            

     Atom    1
     ---- ------
   1. Br  0.0000


 Atom-atom overlap-weighted NAO bond order:                                    

     Atom    1
     ---- ------
   1. Br  0.0000


 Atom-atom overlap-weighted NAO bond order, Totals by atom:                    

     Atom    1
     ---- ------
   1. Br  0.0000


 MO bond order:                                                                

     Atom    1
     ---- ------
   1. Br  0.0000


 MO atomic valencies:                                                          

     Atom    1
     ---- ------
   1. Br  0.0000


 NATURAL BOND ORBITAL ANALYSIS, alpha spin orbitals:

                       Occupancies       Lewis Structure    Low   High
           Occ.    -------------------  -----------------   occ   occ
  Cycle   Thresh.   Lewis   Non-Lewis     CR  BD  3C  LP    (L)   (NL)   Dev
 =============================================================================
   1(1)    0.90    18.00000  -0.00000     14   0   0   4     0      0    0.00
 -----------------------------------------------------------------------------

 Structure accepted: No low occupancy Lewis orbitals

 --------------------------------------------------------
   Core                     14.00000 (100.000% of  14)
   Valence Lewis             4.00000 (100.000% of   4)
  ==================       ============================
   Total Lewis              18.00000 (100.000% of  18)
  -----------------------------------------------------
   Valence non-Lewis         0.00000 (  0.000% of  18)
   Rydberg non-Lewis        -0.00000 ( -0.000% of  18)
  ==================       ============================
   Total non-Lewis          -0.00000 ( -0.000% of  18)
 --------------------------------------------------------


       (Occupancy)   Bond orbital/ Coefficients/ Hybrids
 ---------------------------------------------------------------------------------
     1. (1.00000) CR ( 1)Br   1           s(100.00%)
                                            1.0000  0.0000  0.0000  0.0000  0.0000
                                            0.0000  0.0000  0.0000  0.0000  0.0000
                                            0.0000  0.0000  0.0000  0.0000  0.0000
                                            0.0000  0.0000  0.0000  0.0000  0.0000
                                            0.0000  0.0000  0.0000  0.0000  0.0000
                                            0.0000  0.0000  0.0000  0.0000  0.0000
                                            0.0000  0.0000  0.0000  0.0000  0.0000
                                            0.0000
     2. (1.00000) CR ( 2)Br   1           s(100.00%)
                                            0.0000  1.0000  0.0000  0.0000  0.0000
                                            0.0000  0.0000  0.0000  0.0000  0.0000
                                            0.0000  0.0000  0.0000  0.0000  0.0000
                                            0.0000  0.0000  0.0000  0.0000  0.0000
                                            0.0000  0.0000  0.0000  0.0000  0.0000
                                            0.0000  0.0000  0.0000  0.0000  0.0000
                                            0.0000  0.0000  0.0000  0.0000  0.0000
                                            0.0000
     3. (1.00000) CR ( 3)Br   1           s(100.00%)
                                            0.0000  0.0000  0.0000  1.0000  0.0000
                                            0.0000  0.0000  0.0000  0.0000  0.0000
                                            0.0000  0.0000  0.0000  0.0000  0.0000
                                            0.0000  0.0000  0.0000  0.0000  0.0000
                                            0.0000  0.0000  0.0000  0.0000  0.0000
                                            0.0000  0.0000  0.0000  0.0000  0.0000
                                            0.0000  0.0000  0.0000  0.0000  0.0000
                                            0.0000
     4. (1.00000) CR ( 4)Br   1           s(  0.00%)p 1.00(100.00%)
                                            0.0000  0.0000  0.0000  0.0000  0.0000
                                            0.0000  1.0000  0.0000  0.0000  0.0000
                                            0.0000  0.0000  0.0000  0.0000  0.0000
                                            0.0000  0.0000  0.0000  0.0000  0.0000
                                            0.0000  0.0000  0.0000  0.0000  0.0000
                                            0.0000  0.0000  0.0000  0.0000  0.0000
                                            0.0000  0.0000  0.0000  0.0000  0.0000
                                            0.0000
     5. (1.00000) CR ( 5)Br   1           s(  0.00%)p 1.00(100.00%)
                                            0.0000  0.0000  0.0000  0.0000  0.0000
                                            0.0000  0.0000  1.0000  0.0000  0.0000
                                            0.0000  0.0000  0.0000  0.0000  0.0000
                                            0.0000  0.0000  0.0000  0.0000  0.0000
                                            0.0000  0.0000  0.0000  0.0000  0.0000
                                            0.0000  0.0000  0.0000  0.0000  0.0000
                                            0.0000  0.0000  0.0000  0.0000  0.0000
                                            0.0000
     6. (1.00000) CR ( 6)Br   1           s(  0.00%)p 1.00(100.00%)
                                            0.0000  0.0000  0.0000  0.0000  0.0000
                                            0.0000  0.0000  0.0000  0.0000  0.0000
                                            0.0000  1.0000  0.0000  0.0000  0.0000
                                            0.0000  0.0000  0.0000  0.0000  0.0000
                                            0.0000  0.0000  0.0000  0.0000  0.0000
                                            0.0000  0.0000  0.0000  0.0000  0.0000
                                            0.0000  0.0000  0.0000  0.0000  0.0000
                                            0.0000
     7. (1.00000) CR ( 7)Br   1           s(  0.00%)p 1.00(100.00%)
                                            0.0000  0.0000  0.0000  0.0000  0.0000
                                            0.0000  0.0000  0.0000  0.0000  0.0000
                                            0.0000  0.0000  1.0000  0.0000  0.0000
                                            0.0000  0.0000  0.0000  0.0000  0.0000
                                            0.0000  0.0000  0.0000  0.0000  0.0000
                                            0.0000  0.0000  0.0000  0.0000  0.0000
                                            0.0000  0.0000  0.0000  0.0000  0.0000
                                            0.0000
     8. (1.00000) CR ( 8)Br   1           s(  0.00%)p 1.00(100.00%)
                                            0.0000  0.0000  0.0000  0.0000  0.0000
                                            0.0000  0.0000  0.0000  0.0000  0.0000
                                            0.0000  0.0000  0.0000  0.0000  0.0000
                                            0.0000  1.0000  0.0000  0.0000  0.0000
                                            0.0000  0.0000  0.0000  0.0000  0.0000
                                            0.0000  0.0000  0.0000  0.0000  0.0000
                                            0.0000  0.0000  0.0000  0.0000  0.0000
                                            0.0000
     9. (1.00000) CR ( 9)Br   1           s(  0.00%)p 1.00(100.00%)
                                            0.0000  0.0000  0.0000  0.0000  0.0000
                                            0.0000  0.0000  0.0000  0.0000  0.0000
                                            0.0000  0.0000  0.0000  0.0000  0.0000
                                            0.0000  0.0000  1.0000  0.0000  0.0000
                                            0.0000  0.0000  0.0000  0.0000  0.0000
                                            0.0000  0.0000  0.0000  0.0000  0.0000
                                            0.0000  0.0000  0.0000  0.0000  0.0000
                                            0.0000
    10. (1.00000) CR (10)Br   1           s(  0.00%)p 0.00(  0.00%)d 1.00(100.00%)
                                            0.0000  0.0000  0.0000  0.0000  0.0000
                                            0.0000  0.0000  0.0000  0.0000  0.0000
                                            0.0000  0.0000  0.0000  0.0000  0.0000
                                            0.0000  0.0000  0.0000  0.0000  0.0000
                                            0.0000  1.0000  0.0000  0.0000  0.0000
                                            0.0000  0.0000  0.0000  0.0000  0.0000
                                            0.0000  0.0000  0.0000  0.0000  0.0000
                                            0.0000
    11. (1.00000) CR (11)Br   1           s(  0.00%)p 0.00(  0.00%)d 1.00(100.00%)
                                            0.0000  0.0000  0.0000  0.0000  0.0000
                                            0.0000  0.0000  0.0000  0.0000  0.0000
                                            0.0000  0.0000  0.0000  0.0000  0.0000
                                            0.0000  0.0000  0.0000  0.0000  0.0000
                                            0.0000  0.0000  0.0000  0.0000  1.0000
                                            0.0000  0.0000  0.0000  0.0000  0.0000
                                            0.0000  0.0000  0.0000  0.0000  0.0000
                                            0.0000
    12. (1.00000) CR (12)Br   1           s(  0.00%)p 0.00(  0.00%)d 1.00(100.00%)
                                            0.0000  0.0000  0.0000  0.0000  0.0000
                                            0.0000  0.0000  0.0000  0.0000  0.0000
                                            0.0000  0.0000  0.0000  0.0000  0.0000
                                            0.0000  0.0000  0.0000  0.0000  0.0000
                                            0.0000  0.0000  0.0000  0.0000  0.0000
                                            0.0000  0.0000  1.0000  0.0000  0.0000
                                            0.0000  0.0000  0.0000  0.0000  0.0000
                                            0.0000
    13. (1.00000) CR (13)Br   1           s(  0.00%)p 0.00(  0.00%)d 1.00(100.00%)
                                            0.0000  0.0000  0.0000  0.0000  0.0000
                                            0.0000  0.0000  0.0000  0.0000  0.0000
                                            0.0000  0.0000  0.0000  0.0000  0.0000
                                            0.0000  0.0000  0.0000  0.0000  0.0000
                                            0.0000  0.0000  0.0000  0.0000  0.0000
                                            0.0000  0.0000  0.0000  0.0000  0.0000
                                            1.0000  0.0000  0.0000  0.0000  0.0000
                                            0.0000
    14. (1.00000) CR (14)Br   1           s(  0.00%)p 0.00(  0.00%)d 1.00(100.00%)
                                            0.0000  0.0000  0.0000  0.0000  0.0000
                                            0.0000  0.0000  0.0000  0.0000  0.0000
                                            0.0000  0.0000  0.0000  0.0000  0.0000
                                            0.0000  0.0000  0.0000  0.0000  0.0000
                                            0.0000  0.0000  0.0000  0.0000  0.0000
                                            0.0000  0.0000  0.0000  0.0000  0.0000
                                            0.0000  0.0000  0.0000  1.0000  0.0000
                                            0.0000
    15. (1.00000) LP ( 1)Br   1           s(100.00%)
                                            0.0000  0.0000  1.0000  0.0000  0.0000
                                            0.0000  0.0000  0.0000  0.0000  0.0000
                                            0.0000  0.0000  0.0000  0.0000  0.0000
                                            0.0000  0.0000  0.0000  0.0000  0.0000
                                            0.0000  0.0000  0.0000  0.0000  0.0000
                                            0.0000  0.0000  0.0000  0.0000  0.0000
                                            0.0000  0.0000  0.0000  0.0000  0.0000
                                            0.0000
    16. (1.00000) LP ( 2)Br   1           s(  0.00%)p 1.00(100.00%)
                                            0.0000  0.0000  0.0000  0.0000  0.0000
                                            0.0000  0.0000  0.0000  1.0000  0.0000
                                            0.0000  0.0000  0.0000  0.0000  0.0000
                                            0.0000  0.0000  0.0000  0.0000  0.0000
                                            0.0000  0.0000  0.0000  0.0000  0.0000
                                            0.0000  0.0000  0.0000  0.0000  0.0000
                                            0.0000  0.0000  0.0000  0.0000  0.0000
                                            0.0000
    17. (1.00000) LP ( 3)Br   1           s(  0.00%)p 1.00(100.00%)
                                            0.0000  0.0000  0.0000  0.0000  0.0000
                                            0.0000  0.0000  0.0000  0.0000  0.0000
                                            0.0000  0.0000  0.0000  1.0000  0.0000
                                            0.0000  0.0000  0.0000  0.0000  0.0000
                                            0.0000  0.0000  0.0000  0.0000  0.0000
                                            0.0000  0.0000  0.0000  0.0000  0.0000
                                            0.0000  0.0000  0.0000  0.0000  0.0000
                                            0.0000
    18. (1.00000) LP ( 4)Br   1           s(  0.00%)p 1.00(100.00%)
                                            0.0000  0.0000  0.0000  0.0000  0.0000
                                            0.0000  0.0000  0.0000  0.0000  0.0000
                                            0.0000  0.0000  0.0000  0.0000  0.0000
                                            0.0000  0.0000  0.0000  1.0000  0.0000
                                            0.0000  0.0000  0.0000  0.0000  0.0000
                                            0.0000  0.0000  0.0000  0.0000  0.0000
                                            0.0000  0.0000  0.0000  0.0000  0.0000
                                            0.0000
    19. (0.00000) RY*( 1)Br   1           s(100.00%)
    20. (0.00000) RY*( 2)Br   1           s(100.00%)
    21. (0.00000) RY*( 3)Br   1           s(  0.00%)p 1.00(100.00%)
    22. (0.00000) RY*( 4)Br   1           s(  0.00%)p 1.00(100.00%)
    23. (0.00000) RY*( 5)Br   1           s(  0.00%)p 1.00(100.00%)
    24. (0.00000) RY*( 6)Br   1           s(  0.00%)p 1.00(100.00%)
    25. (0.00000) RY*( 7)Br   1           s(  0.00%)p 1.00(100.00%)
    26. (0.00000) RY*( 8)Br   1           s(  0.00%)p 1.00(100.00%)
    27. (0.00000) RY*( 9)Br   1           s(  0.00%)p 0.00(  0.00%)d 1.00(100.00%)
    28. (0.00000) RY*(10)Br   1           s(  0.00%)p 0.00(  0.00%)d 1.00(100.00%)
    29. (0.00000) RY*(11)Br   1           s(  0.00%)p 0.00(  0.00%)d 1.00(100.00%)
    30. (0.00000) RY*(12)Br   1           s(  0.00%)p 0.00(  0.00%)d 1.00(100.00%)
    31. (0.00000) RY*(13)Br   1           s(  0.00%)p 0.00(  0.00%)d 1.00(100.00%)
    32. (0.00000) RY*(14)Br   1           s(  0.00%)p 0.00(  0.00%)d 1.00(100.00%)
    33. (0.00000) RY*(15)Br   1           s(  0.00%)p 0.00(  0.00%)d 1.00(100.00%)
    34. (0.00000) RY*(16)Br   1           s(  0.00%)p 0.00(  0.00%)d 1.00(100.00%)
    35. (0.00000) RY*(17)Br   1           s(  0.00%)p 0.00(  0.00%)d 1.00(100.00%)
    36. (0.00000) RY*(18)Br   1           s(  0.00%)p 0.00(  0.00%)d 1.00(100.00%)


 NHO Directionality and "Bond Bending" (deviations from line of nuclear centers)

         [Thresholds for printing:  angular deviation  >  1.0 degree]
                                    hybrid p-character > 25.0%
                                    orbital occupancy  >  0.10e

                                Line of Centers        Hybrid 1              Hybrid 2
                                ---------------  -------------------   ------------------
                NBO               Theta   Phi    Theta   Phi    Dev    Theta   Phi    Dev
 ========================================================================================
    16. LP (   2)Br   1             --     --     90.0    0.0   --       --     --    --
    17. LP (   3)Br   1             --     --     90.0   90.0   --       --     --    --
    18. LP (   4)Br   1             --     --      0.0    0.0   --       --     --    --


 Second Order Perturbation Theory Analysis of Fock Matrix in NBO Basis

     Threshold for printing:   0.25 kcal/mol
                                                                              E(2)  E(j)-E(i) F(i,j)
         Donor NBO (i)                     Acceptor NBO (j)                 kcal/mol   a.u.    a.u. 
 ===================================================================================================

 within unit  1
       None above threshold


 Natural Bond Orbitals (Summary):

                                                            Principal Delocalizations
           NBO                        Occupancy    Energy   (geminal,vicinal,remote)
 ====================================================================================
 Molecular unit  1  (Br)
     1. CR (   1)Br   1                  1.00000    -6.90689   
     2. CR (   2)Br   1                  1.00000   -24.63122   
     3. CR (   3)Br   1                  1.00000   -94.41862   
     4. CR (   4)Br   1                  1.00000    -1.54435   
     5. CR (   5)Br   1                  1.00000   -40.49178   
     6. CR (   6)Br   1                  1.00000    -1.54435   
     7. CR (   7)Br   1                  1.00000   -40.49178   
     8. CR (   8)Br   1                  1.00000    -1.54435   
     9. CR (   9)Br   1                  1.00000   -40.49178   
    10. CR (  10)Br   1                  1.00000    -2.35240   
    11. CR (  11)Br   1                  1.00000    -2.35240   
    12. CR (  12)Br   1                  1.00000    -2.35240   
    13. CR (  13)Br   1                  1.00000    -2.35240   
    14. CR (  14)Br   1                  1.00000    -2.35240   
    15. LP (   1)Br   1                  1.00000  -427.75855   
    16. LP (   2)Br   1                  1.00000   -20.28980   
    17. LP (   3)Br   1                  1.00000   -20.28980   
    18. LP (   4)Br   1                  1.00000   -20.28980   
    19. RY*(   1)Br   1                  0.00000     0.92553   
    20. RY*(   2)Br   1                  0.00000     0.29176   
    21. RY*(   3)Br   1                  0.00000     0.63414   
    22. RY*(   4)Br   1                  0.00000     0.49388   
    23. RY*(   5)Br   1                  0.00000     0.63414   
    24. RY*(   6)Br   1                  0.00000     0.49388   
    25. RY*(   7)Br   1                  0.00000     0.63414   
    26. RY*(   8)Br   1                  0.00000     0.49388   
    27. RY*(   9)Br   1                  0.00000     1.15719   
    28. RY*(  10)Br   1                  0.00000     0.58611   
    29. RY*(  11)Br   1                  0.00000     1.15719   
    30. RY*(  12)Br   1                  0.00000     0.58611   
    31. RY*(  13)Br   1                  0.00000     1.15719   
    32. RY*(  14)Br   1                  0.00000     0.58611   
    33. RY*(  15)Br   1                  0.00000     1.15719   
    34. RY*(  16)Br   1                  0.00000     0.58611   
    35. RY*(  17)Br   1                  0.00000     1.15719   
    36. RY*(  18)Br   1                  0.00000     0.58611   
       -------------------------------
              Total Lewis   18.00000  (100.0000%)
        Valence non-Lewis    0.00000  (  0.0000%)
        Rydberg non-Lewis   -0.00000  ( -0.0000%)
       -------------------------------
            Total unit  1   18.00000  (100.0000%)
           Charge unit  1   -0.50000


 ***************************************************
 *******         Beta  spin orbitals         *******
 ***************************************************


 NATURAL POPULATIONS:  Natural atomic orbital occupancies 
                                                          
   NAO  Atom  No  lang   Type(AO)    Occupancy      Energy
 ----------------------------------------------------------
     1   Br    1  S      Cor( 4S)     1.00000      -6.90689
     2   Br    1  S      Cor( 3S)     1.00000     -24.63122
     3   Br    1  S      Cor( 1S)     1.00000    -427.75855
     4   Br    1  S      Val( 2S)     1.00000     -94.41862
     5   Br    1  S      Ryd( 6S)     0.00000       0.92553
     6   Br    1  S      Ryd( 5S)     0.00000       0.29176
     7   Br    1  px     Cor( 4p)     1.00000      -1.54435
     8   Br    1  px     Cor( 2p)     1.00000     -40.49178
     9   Br    1  px     Val( 3p)     1.00000     -20.28980
    10   Br    1  px     Ryd( 6p)     0.00000       0.63414
    11   Br    1  px     Ryd( 5p)     0.00000       0.49388
    12   Br    1  py     Cor( 4p)     1.00000      -1.54435
    13   Br    1  py     Cor( 2p)     1.00000     -40.49178
    14   Br    1  py     Val( 3p)     1.00000     -20.28980
    15   Br    1  py     Ryd( 6p)     0.00000       0.63414
    16   Br    1  py     Ryd( 5p)     0.00000       0.49388
    17   Br    1  pz     Cor( 4p)     1.00000      -1.54435
    18   Br    1  pz     Cor( 2p)     1.00000     -40.49178
    19   Br    1  pz     Val( 3p)     1.00000     -20.28980
    20   Br    1  pz     Ryd( 6p)     0.00000       0.63414
    21   Br    1  pz     Ryd( 5p)     0.00000       0.49388
    22   Br    1  dxy    Cor( 3d)     1.00000      -2.35240
    23   Br    1  dxy    Ryd( 5d)     0.00000       1.15719
[...]
                                            0.0000
    13. (1.00000) CR (13)Br   1           s(  0.00%)p 0.00(  0.00%)d 1.00(100.00%)
                                            0.0000  0.0000  0.0000  0.0000  0.0000
                                            0.0000  0.0000  0.0000  0.0000  0.0000
                                            0.0000  0.0000  0.0000  0.0000  0.0000
                                            0.0000  0.0000  0.0000  0.0000  0.0000
                                            0.0000  0.0000  0.0000  0.0000  0.0000
                                            0.0000  0.0000  0.0000  0.0000  0.0000
                                            1.0000  0.0000  0.0000  0.0000  0.0000
                                            0.0000
    14. (1.00000) CR (14)Br   1           s(  0.00%)p 0.00(  0.00%)d 1.00(100.00%)
                                            0.0000  0.0000  0.0000  0.0000  0.0000
                                            0.0000  0.0000  0.0000  0.0000  0.0000
                                            0.0000  0.0000  0.0000  0.0000  0.0000
                                            0.0000  0.0000  0.0000  0.0000  0.0000
                                            0.0000  0.0000  0.0000  0.0000  0.0000
                                            0.0000  0.0000  0.0000  0.0000  0.0000
                                            0.0000  0.0000  0.0000  1.0000  0.0000
                                            0.0000
    15. (1.00000) LP ( 1)Br   1           s(100.00%)
                                            0.0000  0.0000  0.0000  1.0000  0.0000
                                            0.0000  0.0000  0.0000  0.0000  0.0000
                                            0.0000  0.0000  0.0000  0.0000  0.0000
                                            0.0000  0.0000  0.0000  0.0000  0.0000
                                            0.0000  0.0000  0.0000  0.0000  0.0000
                                            0.0000  0.0000  0.0000  0.0000  0.0000
                                            0.0000  0.0000  0.0000  0.0000  0.0000
                                            0.0000
    16. (1.00000) LP ( 2)Br   1           s(  0.00%)p 1.00(100.00%)
                                            0.0000  0.0000  0.0000  0.0000  0.0000
                                            0.0000  0.0000  0.0000  1.0000  0.0000
                                            0.0000  0.0000  0.0000  0.0000  0.0000
                                            0.0000  0.0000  0.0000  0.0000  0.0000
                                            0.0000  0.0000  0.0000  0.0000  0.0000
                                            0.0000  0.0000  0.0000  0.0000  0.0000
                                            0.0000  0.0000  0.0000  0.0000  0.0000
                                            0.0000
    17. (1.00000) LP ( 3)Br   1           s(  0.00%)p 1.00(100.00%)
                                            0.0000  0.0000  0.0000  0.0000  0.0000
                                            0.0000  0.0000  0.0000  0.0000  0.0000
                                            0.0000  0.0000  0.0000  1.0000  0.0000
                                            0.0000  0.0000  0.0000  0.0000  0.0000
                                            0.0000  0.0000  0.0000  0.0000  0.0000
                                            0.0000  0.0000  0.0000  0.0000  0.0000
                                            0.0000  0.0000  0.0000  0.0000  0.0000
                                            0.0000
    18. (1.00000) LP ( 4)Br   1           s(  0.00%)p 1.00(100.00%)
                                            0.0000  0.0000  0.0000  0.0000  0.0000
                                            0.0000  0.0000  0.0000  0.0000  0.0000
                                            0.0000  0.0000  0.0000  0.0000  0.0000
                                            0.0000  0.0000  0.0000  1.0000  0.0000
                                            0.0000  0.0000  0.0000  0.0000  0.0000
                                            0.0000  0.0000  0.0000  0.0000  0.0000
                                            0.0000  0.0000  0.0000  0.0000  0.0000
                                            0.0000
    19. (0.00000) RY*( 1)Br   1           s(100.00%)
    20. (0.00000) RY*( 2)Br   1           s(100.00%)
    21. (0.00000) RY*( 3)Br   1           s(  0.00%)p 1.00(100.00%)
    22. (0.00000) RY*( 4)Br   1           s(  0.00%)p 1.00(100.00%)
    23. (0.00000) RY*( 5)Br   1           s(  0.00%)p 1.00(100.00%)
    24. (0.00000) RY*( 6)Br   1           s(  0.00%)p 1.00(100.00%)
    25. (0.00000) RY*( 7)Br   1           s(  0.00%)p 1.00(100.00%)
    26. (0.00000) RY*( 8)Br   1           s(  0.00%)p 1.00(100.00%)
    27. (0.00000) RY*( 9)Br   1           s(  0.00%)p 0.00(  0.00%)d 1.00(100.00%)
    28. (0.00000) RY*(10)Br   1           s(  0.00%)p 0.00(  0.00%)d 1.00(100.00%)
    29. (0.00000) RY*(11)Br   1           s(  0.00%)p 0.00(  0.00%)d 1.00(100.00%)
    30. (0.00000) RY*(12)Br   1           s(  0.00%)p 0.00(  0.00%)d 1.00(100.00%)
    31. (0.00000) RY*(13)Br   1           s(  0.00%)p 0.00(  0.00%)d 1.00(100.00%)
    32. (0.00000) RY*(14)Br   1           s(  0.00%)p 0.00(  0.00%)d 1.00(100.00%)
    33. (0.00000) RY*(15)Br   1           s(  0.00%)p 0.00(  0.00%)d 1.00(100.00%)
    34. (0.00000) RY*(16)Br   1           s(  0.00%)p 0.00(  0.00%)d 1.00(100.00%)
    35. (0.00000) RY*(17)Br   1           s(  0.00%)p 0.00(  0.00%)d 1.00(100.00%)
    36. (0.00000) RY*(18)Br   1           s(  0.00%)p 0.00(  0.00%)d 1.00(100.00%)


 NHO Directionality and "Bond Bending" (deviations from line of nuclear centers)

         [Thresholds for printing:  angular deviation  >  1.0 degree]
                                    hybrid p-character > 25.0%
                                    orbital occupancy  >  0.10e

                                Line of Centers        Hybrid 1              Hybrid 2
                                ---------------  -------------------   ------------------
                NBO               Theta   Phi    Theta   Phi    Dev    Theta   Phi    Dev
 ========================================================================================
    16. LP (   2)Br   1             --     --     90.0    0.0   --       --     --    --
    17. LP (   3)Br   1             --     --     90.0   90.0   --       --     --    --
    18. LP (   4)Br   1             --     --      0.0    0.0   --       --     --    --


 Second Order Perturbation Theory Analysis of Fock Matrix in NBO Basis

     Threshold for printing:   0.25 kcal/mol
                                                                              E(2)  E(j)-E(i) F(i,j)
         Donor NBO (i)                     Acceptor NBO (j)                 kcal/mol   a.u.    a.u. 
 ===================================================================================================

 within unit  1
       None above threshold


 Natural Bond Orbitals (Summary):

                                                            Principal Delocalizations
           NBO                        Occupancy    Energy   (geminal,vicinal,remote)
 ====================================================================================
 Molecular unit  1  (Br)
     1. CR (   1)Br   1                  1.00000   -62.70790   
     2. CR (   2)Br   1                  1.00000   -36.08837   
     3. CR (   3)Br   1                  1.00000    -5.73654   
     4. CR (   4)Br   1                  1.00000    -5.25222   
     5. CR (   5)Br   1                  1.00000   -51.00312   
     6. CR (   6)Br   1                  1.00000    -5.25222   
     7. CR (   7)Br   1                  1.00000   -51.00312   
     8. CR (   8)Br   1                  1.00000    -5.25222   
     9. CR (   9)Br   1                  1.00000   -51.00312   
    10. CR (  10)Br   1                  1.00000    -2.35240   
    11. CR (  11)Br   1                  1.00000    -2.35240   
    12. CR (  12)Br   1                  1.00000    -2.35240   
    13. CR (  13)Br   1                  1.00000    -2.35240   
    14. CR (  14)Br   1                  1.00000    -2.35240   
    15. LP (   1)Br   1                  1.00000  -449.18246   
    16. LP (   2)Br   1                  1.00000    -6.07059   
    17. LP (   3)Br   1                  1.00000    -6.07059   
    18. LP (   4)Br   1                  1.00000    -6.07059   
    19. RY*(   1)Br   1                  0.00000     0.24489   
    20. RY*(   2)Br   1                  0.00000     0.97241   
    21. RY*(   3)Br   1                  0.00000     0.59323   
    22. RY*(   4)Br   1                  0.00000     0.53480   
    23. RY*(   5)Br   1                  0.00000     0.59323   
    24. RY*(   6)Br   1                  0.00000     0.53480   
    25. RY*(   7)Br   1                  0.00000     0.59323   
    26. RY*(   8)Br   1                  0.00000     0.53480   
    27. RY*(   9)Br   1                  0.00000     0.50720   
    28. RY*(  10)Br   1                  0.00000     1.23610   
    29. RY*(  11)Br   1                  0.00000     0.50720   
    30. RY*(  12)Br   1                  0.00000     1.23610   
    31. RY*(  13)Br   1                  0.00000     0.50720   
    32. RY*(  14)Br   1                  0.00000     1.23610   
    33. RY*(  15)Br   1                  0.00000     0.50720   
    34. RY*(  16)Br   1                  0.00000     1.23610   
    35. RY*(  17)Br   1                  0.00000     0.50720   
    36. RY*(  18)Br   1                  0.00000     1.23610   
       -------------------------------
              Total Lewis   18.00000  (100.0000%)
        Valence non-Lewis    0.00000  (  0.0000%)
        Rydberg non-Lewis   -0.00000  ( -0.0000%)
       -------------------------------
            Total unit  1   18.00000  (100.0000%)
           Charge unit  1   -0.50000
 Leave Link  607 at Mon Mar 11 17:59:30 2019, MaxMem=   524288000 cpu:              34.8 elap:              15.8
 (Enter /home/ubuntu/g16/l701.exe)
 ... and contract with generalized density number  0.
 Compute integral second derivatives.
 Leave Link  701 at Mon Mar 11 17:59:32 2019, MaxMem=   524288000 cpu:               1.5 elap:               0.4
 (Enter /home/ubuntu/g16/l702.exe)
 L702 exits ... SP integral derivatives will be done elsewhere.
 Leave Link  702 at Mon Mar 11 17:59:32 2019, MaxMem=   524288000 cpu:               0.2 elap:               0.1
 (Enter /home/ubuntu/g16/l703.exe)
 Integral derivatives from FoFJK, PRISM(SPDF).
 Compute integral second derivatives, UseDBF=F ICtDFT=           0.
 Calling FoFJK, ICntrl=    100127 FMM=F ISym2X=1 I1Cent= 0 IOpClX= 1 NMat=1 NMatS=1 NMatT=0.
 FoFJK:  IHMeth= 1 ICntrl=  100127 DoSepK=F KAlg= 0 I1Cent=           0 FoldK=F
 IRaf=         0 NMat=       1 IRICut=       1 DoRegI=T DoRafI=F ISym2E= 1 IDoP0=0 IntGTp=1.
 FoFCou: FMM=F IPFlag=           0 FMFlag=      100000 FMFlg1=         800
         NFxFlg=           0 DoJE=F BraDBF=F KetDBF=F FulRan=T
         wScrn=  0.000000 ICntrl=    100127 IOpCl=  1 I1Cent=           0 NGrid=           0
         NMat0=    1 NMatS0=      1 NMatT0=    0 NMatD0=    1 NMtDS0=    0 NMtDT0=    0
 Petite list used in FoFCou.
 Leave Link  703 at Mon Mar 11 17:59:33 2019, MaxMem=   524288000 cpu:               4.5 elap:               0.7
 (Enter /home/ubuntu/g16/l716.exe)
 Dipole        = 0.00000000D+00 0.00000000D+00 0.00000000D+00
 Polarizability= 3.21573489D+01-7.89649439D-20 3.21573489D+01
                -7.12192434D-20-3.18989297D-20 3.21573489D+01
 Full mass-weighted force constant matrix:
 Low frequencies ---   -0.0177   -0.0177   -0.0177
 Diagonal vibrational polarizability:
        0.0000000       0.0000000       0.0000000
 Harmonic frequencies (cm**-1), IR intensities (KM/Mole), Raman scattering
 activities (A**4/AMU), depolarization ratios for plane and unpolarized
 incident light, reduced masses (AMU), force constants (mDyne/A),
 and normal coordinates:

 -------------------
 - Thermochemistry -
 -------------------
 Temperature   298.150 Kelvin.  Pressure   1.00000 Atm.
 Atom     1 has atomic number 35 and mass  78.91834
 Molecular mass:    78.91834 amu.
 Zero-point vibrational energy          0.0 (Joules/Mol)
                                    0.00000 (Kcal/Mol)
 Vibrational temperatures: 
          (Kelvin)
 
 Zero-point correction=                           0.000000 (Hartree/Particle)
 Thermal correction to Energy=                    0.001416
 Thermal correction to Enthalpy=                  0.002360
 Thermal correction to Gibbs Free Energy=        -0.016176
 Sum of electronic and zero-point Energies=          -2574.248076
 Sum of electronic and thermal Energies=             -2574.246660
 Sum of electronic and thermal Enthalpies=           -2574.245716
 Sum of electronic and thermal Free Energies=        -2574.264252
 
                     E (Thermal)             CV                S
                      KCal/Mol        Cal/Mol-Kelvin    Cal/Mol-Kelvin
 Total                    0.889              2.981             39.012
 Electronic               0.000              0.000              0.000
 Translational            0.889              2.981             39.012
 Rotational               0.000              0.000              0.000
 Vibrational              0.000              0.000              0.000
                       Q            Log10(Q)             Ln(Q)
 Total Bot       0.275563D+08          7.440221         17.131741
 Total V=0       0.275563D+08          7.440221         17.131741
 Vib (Bot)       0.100000D+01          0.000000          0.000000
 Vib (V=0)       0.100000D+01          0.000000          0.000000
 Electronic      0.100000D+01          0.000000          0.000000
 Translational   0.275563D+08          7.440221         17.131741
 Rotational      0.100000D+01          0.000000          0.000000
 ***** Axes restored to original set *****
 -------------------------------------------------------------------
 Center     Atomic                   Forces (Hartrees/Bohr)
 Number     Number              X              Y              Z
 -------------------------------------------------------------------
      1       35          -0.000000000   -0.000000000    0.000000000
 -------------------------------------------------------------------
 Cartesian Forces:  Max     0.000000000 RMS     0.000000000
 Force constants in Cartesian coordinates: 
                1             2             3 
      1  0.000000D+00
      2  0.000000D+00  0.000000D+00
      3  0.000000D+00  0.000000D+00  0.000000D+00
 Leave Link  716 at Mon Mar 11 17:59:33 2019, MaxMem=   524288000 cpu:               0.4 elap:               0.1
 (Enter /home/ubuntu/g16/l103.exe)

 GradGradGradGradGradGradGradGradGradGradGradGradGradGradGradGradGradGrad
 Berny optimization.
 Search for a local minimum.
 Step number   1 out of a maximum of    2
 All quantities printed in internal units (Hartrees-Bohrs-Radians)
 Second derivative matrix not updated -- analytic derivatives used.
 The second derivative matrix:
                          X1        Y1        Z1
           X1          -0.00000
           Y1          -0.00000  -0.00000
           Z1           0.00000  -0.00000  -0.00000
 ITU=  0
     Eigenvalues --- 
 Angle between quadratic step and forces=  90.00 degrees.
 ClnCor:  largest displacement from symmetrization is 0.00D+00 for atom     0.
 Linear search not attempted -- first point.
 ClnCor:  largest displacement from symmetrization is 0.00D+00 for atom     0.
 B after Tr=     0.000000    0.000000    0.000000
         Rot=    1.000000    0.000000    0.000000    0.000000 Ang=   0.00 deg.
 Variable       Old X    -DE/DX   Delta X   Delta X   Delta X     New X
                                 (Linear)    (Quad)   (Total)
    X1       -1.41268  -0.00000   0.00000   0.00000   0.00000  -1.41268
    Y1       -0.99721  -0.00000   0.00000   0.00000   0.00000  -0.99721
    Z1        0.00756   0.00000   0.00000  -0.00000   0.00000   0.00756
         Item               Value     Threshold  Converged?
 Maximum Force            0.000000     0.000450     YES
 RMS     Force            0.000000     0.000300     YES
 Maximum Displacement     0.000000     0.001800     YES
 RMS     Displacement     0.000000     0.001200     YES
 Predicted change in Energy=-0.000000D+00
 Optimization completed.
    -- Stationary point found.
 GradGradGradGradGradGradGradGradGradGradGradGradGradGradGradGradGradGrad

 Leave Link  103 at Mon Mar 11 17:59:33 2019, MaxMem=   524288000 cpu:               0.8 elap:               0.2
 (Enter /home/ubuntu/g16/l9999.exe)
 Dipole is zero, so no output in dipole orientation.

 ----------------------------------------------------------------------

 Electric dipole moment (input orientation):
 (Debye = 10**-18 statcoulomb cm , SI units = C m)
                  (au)            (Debye)         (10**-30 SI)
   Tot        0.000000D+00      0.000000D+00      0.000000D+00
   x          0.000000D+00      0.000000D+00      0.000000D+00
   y          0.000000D+00      0.000000D+00      0.000000D+00
   z          0.000000D+00      0.000000D+00      0.000000D+00

 Dipole polarizability, Alpha (input orientation).
 (esu units = cm**3 , SI units = C**2 m**2 J**-1)
 Alpha(0;0):
               (au)            (10**-24 esu)      (10**-40 SI)
   iso        0.321573D+02      0.476523D+01      0.530203D+01
   aniso      0.000000D+00      0.000000D+00      0.000000D+00
   xx         0.321573D+02      0.476523D+01      0.530203D+01
   yx         0.000000D+00      0.000000D+00      0.000000D+00
   yy         0.321573D+02      0.476523D+01      0.530203D+01
   zx         0.000000D+00      0.000000D+00      0.000000D+00
   zy         0.000000D+00      0.000000D+00      0.000000D+00
   zz         0.321573D+02      0.476523D+01      0.530203D+01

 ----------------------------------------------------------------------
 1\1\GINC-LC06-3-8\Freq\UB3LYP\Aug-CC-pVDZ\Br1(1-)\UBUNTU\11-Mar-2019\0
 \\#P Geom=AllCheck Guess=TCheck SCRF=Check GenChk UB3LYP/Aug-CC-pVDZ F
 req\\Br-_UB3LYP-aug-cc-pVDZ\\-1,1\Br,-0.74756,-0.5277,0.004\\Version=E
 S64L-G16RevA.03\State=1-A1G\HF=-2574.2480762\S2=0.\S2-1=0.\S2A=0.\RMSD
 =4.823e-32\RMSF=0.000e+00\Thermal=0.0014163\Dipole=0.,0.,0.\DipoleDeri
 v=-1.,0.,0.,0.,-1.,0.,0.,0.,-1.\Polar=32.1573489,0.,32.1573489,0.,0.,3
 2.1573489\Quadrupole=0.,0.,0.,0.,0.,0.\PG=OH [O(Br1)]\NImag=0\\0.,0.,0
 .,0.,0.,0.\\0.,0.,0.\\\@


 NOBODY LOSES ALL THE TIME
 I HAD AN UNCLE NAMED
 SOL WHO WAS A BORN FAILURE AND
 NEARLY EVERYBODY SAID HE SHOULD HAVE GONE
 INTO VAUDEVILLE PERHAPS BECAUSE MY UNCLE SOL COULD
 SING MCCANN HE WAS A DIVER ON XMAS EVE LIKE HELL ITSELF WHICH
 MAY OR MAY NOT ACCOUNT FOR THE FACT THAT MY UNCLE
 SOL INDULGED IN THAT POSSIBLY MOST INEXCUSABLE
 OF ALL TO USE A HIGHFALOOTIN PHRASE
 LUXURIES THAT IS OR TO
 WIT FARMING AND BE
 IT NEEDLESSLY
 ADDED
 MY UNCLE SOL'S FARM     
 FAILED BECAUSE THE CHICKENS
 ATE THE VEGETABLES SO
 MY UNCLE SOL HAD A
 CHICKEN FARM TILL THE
 SKUNKS ATE THE CHICKENS WHEN 
 MY UNCLE SOL
 HAD A SKUNK FARM BUT
 THE SKUNKS CAUGHT COLD AND
 DIED AND SO
 MY UNCLE SOL IMITATED THE
 SKUNKS IN A SUBTLE MANNER
 OR BY DROWNING HIMSELF IN THE WATERTANK
 BUT SOMEBODY WHO'D GIVEN MY UNCLE SOL A VICTOR     
 VICTROLA AND RECORDS WHILE HE LIVED PRESENTED TO
 HIM UPON THE AUSPICIOUS OCCASION OF HIS DECEASE A
 SCRUMPTIOUS NOT TO MENTION SPLENDIFEROUS FUNERAL WITH
 TALL BOYS IN BLACK GLOVES AND FLOWERS AND EVERYTHING AND
 I REMEMBER WE ALL CRIED LIKE THE MISSOURI
 WHEN MY UNCLE SOL'S COFFIN LURCHED BECAUSE     
 SOMEBODY PRESSED A BUTTON
 (AND DOWN WENT
 MY UNCLE
 SOL
 AND STARTED A WORM FARM)
           E. E. CUMMINGS
 Job cpu time:       0 days  0 hours  1 minutes 15.5 seconds.
 Elapsed time:       0 days  0 hours  0 minutes 25.7 seconds.
 File lengths (MBytes):  RWF=      6 Int=      0 D2E=      0 Chk=      1 Scr=      1
 Normal termination of Gaussian 16 at Mon Mar 11 17:59:33 2019.
