 Entering Gaussian System, Link 0=/home/ubuntu/g16/g16
 Input=C6H4N2_UB3LYP-aug-cc-pVDZ-Opt.gjf
 Output=C6H4N2_UB3LYP-aug-cc-pVDZ-Opt.log
 Initial command:
 /home/ubuntu/g16/l1.exe "/home/ubuntu/g16/Gau-27015.inp" -scrdir="/home/ubuntu/g16/"
 Entering Link 1 = /home/ubuntu/g16/l1.exe PID=     27017.
  
 Copyright (c) 1988,1990,1992,1993,1995,1998,2003,2009,2016,
            Gaussian, Inc.  All Rights Reserved.
  
 This is part of the Gaussian(R) 16 program.  It is based on
 the Gaussian(R) 09 system (copyright 2009, Gaussian, Inc.),
 the Gaussian(R) 03 system (copyright 2003, Gaussian, Inc.),
 the Gaussian(R) 98 system (copyright 1998, Gaussian, Inc.),
 the Gaussian(R) 94 system (copyright 1995, Gaussian, Inc.),
 the Gaussian 92(TM) system (copyright 1992, Gaussian, Inc.),
 the Gaussian 90(TM) system (copyright 1990, Gaussian, Inc.),
 the Gaussian 88(TM) system (copyright 1988, Gaussian, Inc.),
 the Gaussian 86(TM) system (copyright 1986, Carnegie Mellon
 University), and the Gaussian 82(TM) system (copyright 1983,
 Carnegie Mellon University). Gaussian is a federally registered
 trademark of Gaussian, Inc.
  
 This software contains proprietary and confidential information,
 including trade secrets, belonging to Gaussian, Inc.
  
 This software is provided under written license and may be
 used, copied, transmitted, or stored only in accord with that
 written license.
  
 The following legend is applicable only to US Government
 contracts under FAR:
  
                    RESTRICTED RIGHTS LEGEND
  
 Use, reproduction and disclosure by the US Government is
 subject to restrictions as set forth in subparagraphs (a)
 and (c) of the Commercial Computer Software - Restricted
 Rights clause in FAR 52.227-19.
  
 Gaussian, Inc.
 340 Quinnipiac St., Bldg. 40, Wallingford CT 06492
  
  
 ---------------------------------------------------------------
 Warning -- This program may not be used in any manner that
 competes with the business of Gaussian, Inc. or will provide
 assistance to any competitor of Gaussian, Inc.  The licensee
 of this program is prohibited from giving any competitor of
 Gaussian, Inc. access to this program.  By using this program,
 the user acknowledges that Gaussian, Inc. is engaged in the
 business of creating and licensing software in the field of
 computational chemistry and represents and warrants to the
 licensee that it is not a competitor of Gaussian, Inc. and that
 it will not use this program in any manner prohibited above.
 ---------------------------------------------------------------
  

 Cite this work as:
 Gaussian 16, Revision A.03,
 M. J. Frisch, G. W. Trucks, H. B. Schlegel, G. E. Scuseria, 
 M. A. Robb, J. R. Cheeseman, G. Scalmani, V. Barone, 
 G. A. Petersson, H. Nakatsuji, X. Li, M. Caricato, A. V. Marenich, 
 J. Bloino, B. G. Janesko, R. Gomperts, B. Mennucci, H. P. Hratchian, 
 J. V. Ortiz, A. F. Izmaylov, J. L. Sonnenberg, D. Williams-Young, 
 F. Ding, F. Lipparini, F. Egidi, J. Goings, B. Peng, A. Petrone, 
 T. Henderson, D. Ranasinghe, V. G. Zakrzewski, J. Gao, N. Rega, 
 G. Zheng, W. Liang, M. Hada, M. Ehara, K. Toyota, R. Fukuda, 
 J. Hasegawa, M. Ishida, T. Nakajima, Y. Honda, O. Kitao, H. Nakai, 
 T. Vreven, K. Throssell, J. A. Montgomery, Jr., J. E. Peralta, 
 F. Ogliaro, M. J. Bearpark, J. J. Heyd, E. N. Brothers, K. N. Kudin, 
 V. N. Staroverov, T. A. Keith, R. Kobayashi, J. Normand, 
 K. Raghavachari, A. P. Rendell, J. C. Burant, S. S. Iyengar, 
 J. Tomasi, M. Cossi, J. M. Millam, M. Klene, C. Adamo, R. Cammi, 
 J. W. Ochterski, R. L. Martin, K. Morokuma, O. Farkas, 
 J. B. Foresman, and D. J. Fox, Gaussian, Inc., Wallingford CT, 2016.
 
 ******************************************
 Gaussian 16:  ES64L-G16RevA.03 25-Dec-2016
                 5-Nov-2016 
 ******************************************
 %chk=C6H4N2_UB3LYP-aug-cc-pVDZ-Opt.chk
 %mem=500MW
 %nproc=7
 Will use up to    7 processors via shared memory.
 ----------------------------------------------------------------------
 #p opt=(maxcycles=777) freq ub3lyp/aug-cc-pVDZ pop=(Bonding,AllOrbital
 s,mk,no,nboread)
 ----------------------------------------------------------------------
 1/6=777,18=20,19=15,26=3,38=1/1,3;
 2/9=110,12=2,17=6,18=5,40=1/2;
 3/5=16,7=10,11=2,25=1,30=1,71=1,74=-5,116=2/1,2,3;
 4//1;
 5/5=2,38=5/2;
 6/7=2,8=2,9=2,10=2,15=8,20=1,22=-1,27=20,28=1,31=1,40=2,96=-1/1,2,7;
 7//1,2,3,16;
 1/6=777,18=20,19=15,26=3/3(2);
 2/9=110/2;
 99//99;
 2/9=110/2;
 3/5=16,7=10,11=2,25=1,30=1,71=1,74=-5,116=2/1,2,3;
 4/5=5,16=3,69=1/1;
 5/5=2,38=5/2;
 7//1,2,3,16;
 1/6=777,18=20,19=15,26=3/3(-5);
 2/9=110/2;
 6/7=2,8=2,9=2,10=2,15=8,19=2,20=1,22=-1,27=20,28=1,31=1,40=2,96=-1/1,2,7;
 99/9=1/99;
 Leave Link    1 at Sat Nov  5 15:43:28 2016, MaxMem=   524288000 cpu:               0.3 elap:               0.0
 (Enter /home/ubuntu/g16/l101.exe)
 -------------------------
 C6H4N2_UB3LYP-aug-cc-pVDZ
 -------------------------
 Symbolic Z-matrix:
 Charge =  0 Multiplicity = 1
 C                    -1.20398  -0.39192  -0.05918 
 N                    -2.59183  -0.53088  -0.10485 
 N                    -3.70799  -0.57526  -0.14082 
 C                    -0.79464   0.95502  -0.04478 
 C                     0.63093   1.01066   0.00356 
 C                     1.45263  -0.11483   0.03177 
 C                     0.92017  -1.4299    0.0124 
 C                    -0.44767  -1.59805  -0.03455 
 H                     1.11397   1.99235   0.0203 
 H                     2.5388    0.00786   0.0699 
 H                     1.58214  -2.29499   0.0348 
 H                    -0.91727  -2.58232  -0.05176 
 
 ITRead=  0  0  0  0  0  0  0  0  0  0  0  0
 MicOpt= -1 -1 -1 -1 -1 -1 -1 -1 -1 -1 -1 -1
 NAtoms=     12 NQM=       12 NQMF=       0 NMMI=      0 NMMIF=      0
                NMic=       0 NMicF=      0.
                    Isotopes and Nuclear Properties:
 (Nuclear quadrupole moments (NQMom) in fm**2, nuclear magnetic moments (NMagM)
  in nuclear magnetons)

  Atom         1           2           3           4           5           6           7           8           9          10
 IAtWgt=          12          14          14          12          12          12          12          12           1           1
 AtmWgt=  12.0000000  14.0030740  14.0030740  12.0000000  12.0000000  12.0000000  12.0000000  12.0000000   1.0078250   1.0078250
 NucSpn=           0           2           2           0           0           0           0           0           1           1
 AtZEff=  -0.0000000  -0.0000000  -0.0000000  -0.0000000  -0.0000000  -0.0000000  -0.0000000  -0.0000000  -0.0000000  -0.0000000
 NQMom=    0.0000000   2.0440000   2.0440000   0.0000000   0.0000000   0.0000000   0.0000000   0.0000000   0.0000000   0.0000000
 NMagM=    0.0000000   0.4037610   0.4037610   0.0000000   0.0000000   0.0000000   0.0000000   0.0000000   2.7928460   2.7928460
 AtZNuc=   6.0000000   7.0000000   7.0000000   6.0000000   6.0000000   6.0000000   6.0000000   6.0000000   1.0000000   1.0000000

  Atom        11          12
 IAtWgt=           1           1
 AtmWgt=   1.0078250   1.0078250
 NucSpn=           1           1
 AtZEff=  -0.0000000  -0.0000000
 NQMom=    0.0000000   0.0000000
 NMagM=    2.7928460   2.7928460
 AtZNuc=   1.0000000   1.0000000
 Leave Link  101 at Sat Nov  5 15:43:28 2016, MaxMem=   524288000 cpu:               1.2 elap:               0.2
 (Enter /home/ubuntu/g16/l103.exe)

 GradGradGradGradGradGradGradGradGradGradGradGradGradGradGradGradGradGrad
 Berny optimization.
 Initialization pass.
                           ----------------------------
                           !    Initial Parameters    !
                           ! (Angstroms and Degrees)  !
 --------------------------                            --------------------------
 ! Name  Definition              Value          Derivative Info.                !
 --------------------------------------------------------------------------------
 ! R1    R(1,2)                  1.3955         estimate D2E/DX2                !
 ! R2    R(1,4)                  1.4078         estimate D2E/DX2                !
 ! R3    R(1,8)                  1.4239         estimate D2E/DX2                !
 ! R4    R(2,3)                  1.1176         estimate D2E/DX2                !
 ! R5    R(4,5)                  1.4275         estimate D2E/DX2                !
 ! R6    R(5,6)                  1.3938         estimate D2E/DX2                !
 ! R7    R(5,9)                  1.0942         estimate D2E/DX2                !
 ! R8    R(6,7)                  1.4189         estimate D2E/DX2                !
 ! R9    R(6,10)                 1.0937         estimate D2E/DX2                !
 ! R10   R(7,8)                  1.3789         estimate D2E/DX2                !
 ! R11   R(7,11)                 1.0895         estimate D2E/DX2                !
 ! R12   R(8,12)                 1.0907         estimate D2E/DX2                !
 ! A1    A(2,1,4)              112.6287         estimate D2E/DX2                !
 ! A2    A(2,1,8)              116.389          estimate D2E/DX2                !
 ! A3    A(4,1,8)              130.9823         estimate D2E/DX2                !
 ! A4    A(1,4,5)              109.1479         estimate D2E/DX2                !
 ! A5    A(4,5,6)              123.9147         estimate D2E/DX2                !
 ! A6    A(4,5,9)              118.4469         estimate D2E/DX2                !
 ! A7    A(6,5,9)              117.6383         estimate D2E/DX2                !
 ! A8    A(5,6,7)              121.7957         estimate D2E/DX2                !
 ! A9    A(5,6,10)             119.7079         estimate D2E/DX2                !
 ! A10   A(7,6,10)             118.4964         estimate D2E/DX2                !
 ! A11   A(6,7,8)              119.0599         estimate D2E/DX2                !
 ! A12   A(6,7,11)             120.5051         estimate D2E/DX2                !
 ! A13   A(8,7,11)             120.435          estimate D2E/DX2                !
 ! A14   A(1,8,7)              115.0994         estimate D2E/DX2                !
 ! A15   A(1,8,12)             122.3755         estimate D2E/DX2                !
 ! A16   A(7,8,12)             122.5251         estimate D2E/DX2                !
 ! A17   L(1,2,3,12,-1)        183.4389         estimate D2E/DX2                !
 ! A18   L(1,2,3,12,-2)        179.9552         estimate D2E/DX2                !
 ! D1    D(2,1,4,5)            179.9367         estimate D2E/DX2                !
 ! D2    D(8,1,4,5)             -0.0284         estimate D2E/DX2                !
 ! D3    D(2,1,8,7)           -179.9114         estimate D2E/DX2                !
 ! D4    D(2,1,8,12)             0.0975         estimate D2E/DX2                !
 ! D5    D(4,1,8,7)              0.0527         estimate D2E/DX2                !
 ! D6    D(4,1,8,12)          -179.9384         estimate D2E/DX2                !
 ! D7    D(1,4,5,6)             -0.0395         estimate D2E/DX2                !
 ! D8    D(1,4,5,9)            179.9991         estimate D2E/DX2                !
 ! D9    D(4,5,6,7)              0.0808         estimate D2E/DX2                !
 ! D10   D(4,5,6,10)          -179.9203         estimate D2E/DX2                !
 ! D11   D(9,5,6,7)           -179.9575         estimate D2E/DX2                !
 ! D12   D(9,5,6,10)             0.0414         estimate D2E/DX2                !
 ! D13   D(5,6,7,8)             -0.0522         estimate D2E/DX2                !
 ! D14   D(5,6,7,11)           179.9787         estimate D2E/DX2                !
 ! D15   D(10,6,7,8)           179.9489         estimate D2E/DX2                !
 ! D16   D(10,6,7,11)           -0.0202         estimate D2E/DX2                !
 ! D17   D(6,7,8,1)             -0.0086         estimate D2E/DX2                !
 ! D18   D(6,7,8,12)           179.9825         estimate D2E/DX2                !
 ! D19   D(11,7,8,1)           179.9605         estimate D2E/DX2                !
 ! D20   D(11,7,8,12)           -0.0484         estimate D2E/DX2                !
 --------------------------------------------------------------------------------
 Trust Radius=3.00D-01 FncErr=1.00D-07 GrdErr=1.00D-06 EigMax=2.50D+02 EigMin=1.00D-04
 Number of steps in this run=    100 maximum allowed number of steps=    100.
 GradGradGradGradGradGradGradGradGradGradGradGradGradGradGradGradGradGrad

 Leave Link  103 at Sat Nov  5 15:43:28 2016, MaxMem=   524288000 cpu:               0.0 elap:               0.0
 (Enter /home/ubuntu/g16/l202.exe)
                          Input orientation:                          
 ---------------------------------------------------------------------
 Center     Atomic      Atomic             Coordinates (Angstroms)
 Number     Number       Type             X           Y           Z
 ---------------------------------------------------------------------
      1          6           0       -1.203980   -0.391920   -0.059180
      2          7           0       -2.591830   -0.530880   -0.104850
      3          7           0       -3.707990   -0.575260   -0.140820
      4          6           0       -0.794640    0.955020   -0.044780
      5          6           0        0.630930    1.010660    0.003560
      6          6           0        1.452630   -0.114830    0.031770
      7          6           0        0.920170   -1.429900    0.012400
      8          6           0       -0.447670   -1.598050   -0.034550
      9          1           0        1.113970    1.992350    0.020300
     10          1           0        2.538800    0.007860    0.069900
     11          1           0        1.582140   -2.294990    0.034800
     12          1           0       -0.917270   -2.582320   -0.051760
 ---------------------------------------------------------------------
                    Distance matrix (angstroms):
                    1          2          3          4          5
     1  C    0.000000
     2  N    1.395537   0.000000
     3  N    2.512040   1.117621   0.000000
     4  C    1.407840   2.332681   3.292201   0.000000
     5  C    2.310425   3.574113   4.621928   1.427474   0.000000
     6  C    2.672569   4.068098   5.183993   2.490113   1.393813
     7  C    2.365278   3.627138   4.708901   2.937973   2.457656
     8  C    1.423854   2.396083   3.418637   2.576560   2.823154
     9  H    3.326252   4.485009   5.465334   2.173265   1.094223
    10  H    3.766283   5.161796   6.277485   3.467288   2.156380
    11  H    3.375348   4.533609   5.565410   4.027155   3.439927
    12  H    2.209097   2.648655   3.438654   3.539472   3.912734
                    6          7          8          9         10
     6  C    0.000000
     7  C    1.418907   0.000000
     8  C    2.411531   1.378936   0.000000
     9  H    2.134252   3.427742   3.915699   0.000000
    10  H    1.093742   2.165738   3.392471   2.443522   0.000000
    11  H    2.184005   1.089535   2.147246   4.312850   2.493902
    12  H    3.422267   2.169879   1.090691   5.005870   4.320677
                   11         12
    11  H    0.000000
    12  H    2.517360   0.000000
 Stoichiometry    C6H4N2
 Framework group  C1[X(C6H4N2)]
 Deg. of freedom    30
 Full point group                 C1      NOp   1
 Largest Abelian subgroup         C1      NOp   1
 Largest concise Abelian subgroup C1      NOp   1
                         Standard orientation:                         
 ---------------------------------------------------------------------
 Center     Atomic      Atomic             Coordinates (Angstroms)
 Number     Number       Type             X           Y           Z
 ---------------------------------------------------------------------
      1          6           0        0.529416   -0.024222   -0.000892
      2          7           0        1.924805   -0.003931   -0.000075
      3          7           0        3.041270   -0.054742    0.001308
      4          6           0        0.006690   -1.331422   -0.000875
      5          6           0       -1.419260   -1.265481   -0.000242
      6          6           0       -2.142687   -0.074110    0.001064
      7          6           0       -1.499903    1.190851    0.000179
      8          6           0       -0.121913    1.241926   -0.000937
      9          1           0       -1.984374   -2.202481   -0.000163
     10          1           0       -3.236023   -0.103870    0.002803
     11          1           0       -2.086234    2.109166    0.000884
     12          1           0        0.430052    2.182639   -0.001934
 ---------------------------------------------------------------------
 Rotational constants (GHZ):           5.5983863           1.6310252           1.2630506
 Leave Link  202 at Sat Nov  5 15:43:28 2016, MaxMem=   524288000 cpu:               0.0 elap:               0.0
 (Enter /home/ubuntu/g16/l301.exe)
 Standard basis: Aug-CC-pVDZ (5D, 7F)
 Ernie: Thresh=  0.10000D-02 Tol=  0.10000D-05 Strict=F.
 Ernie:  16 primitive shells out of 228 were deleted.
 There are   236 symmetry adapted cartesian basis functions of A   symmetry.
 There are   220 symmetry adapted basis functions of A   symmetry.
   220 basis functions,   388 primitive gaussians,   236 cartesian basis functions
    27 alpha electrons       27 beta electrons
       nuclear repulsion energy       301.9605268094 Hartrees.
 IExCor=  402 DFT=T Ex+Corr=B3LYP ExCW=0 ScaHFX=  0.200000
 ScaDFX=  0.800000  0.720000  1.000000  0.810000 ScalE2=  1.000000  1.000000
 IRadAn=      5 IRanWt=     -1 IRanGd=            0 ICorTp=0 IEmpDi=  4
 NAtoms=   12 NActive=   12 NUniq=   12 SFac= 1.00D+00 NAtFMM=   60 NAOKFM=F Big=F
 Integral buffers will be    131072 words long.
 Raffenetti 2 integral format.
 Two-electron integral symmetry is turned on.
 Leave Link  301 at Sat Nov  5 15:43:28 2016, MaxMem=   524288000 cpu:               0.2 elap:               0.0
 (Enter /home/ubuntu/g16/l302.exe)
 NPDir=0 NMtPBC=     1 NCelOv=     1 NCel=       1 NClECP=     1 NCelD=      1
         NCelK=      1 NCelE2=     1 NClLst=     1 CellRange=     0.0.
 One-electron integrals computed using PRISM.
 One-electron integral symmetry used in STVInt
 NBasis=   220 RedAO= T EigKep=  5.39D-06  NBF=   220
 NBsUse=   220 1.00D-06 EigRej= -1.00D+00 NBFU=   220
 Precomputing XC quadrature grid using
 IXCGrd= 4 IRadAn=           5 IRanWt=          -1 IRanGd=           0 AccXCQ= 0.00D+00.
 Generated NRdTot=       0 NPtTot=           0 NUsed=           0 NTot=          32
 NSgBfM=   236   236   236   236   236 MxSgAt=    12 MxSgA2=    12.
 Leave Link  302 at Sat Nov  5 15:43:28 2016, MaxMem=   524288000 cpu:               1.9 elap:               0.3
 (Enter /home/ubuntu/g16/l303.exe)
 DipDrv:  MaxL=1.
 Leave Link  303 at Sat Nov  5 15:43:28 2016, MaxMem=   524288000 cpu:               0.3 elap:               0.0
 (Enter /home/ubuntu/g16/l401.exe)
 ExpMin= 2.97D-02 ExpMax= 9.05D+03 ExpMxC= 3.09D+02 IAcc=3 IRadAn=         5 AccDes= 0.00D+00
 Harris functional with IExCor=  402 and IRadAn=       5 diagonalized for initial guess.
 HarFok:  IExCor=  402 AccDes= 0.00D+00 IRadAn=         5 IDoV= 1 UseB2=F ITyADJ=14
 ICtDFT=  3500011 ScaDFX=  1.000000  1.000000  1.000000  1.000000
 FoFCou: FMM=F IPFlag=           0 FMFlag=      100000 FMFlg1=           0
         NFxFlg=           0 DoJE=T BraDBF=F KetDBF=T FulRan=T
         wScrn=  0.000000 ICntrl=       500 IOpCl=  0 I1Cent=   200000004 NGrid=           0
         NMat0=    1 NMatS0=      1 NMatT0=    0 NMatD0=    1 NMtDS0=    0 NMtDT0=    0
 Petite list used in FoFCou.
 Harris En= -340.466512489680    
 JPrj=0 DoOrth=F DoCkMO=F.
 Initial guess <Sx>= 0.0000 <Sy>= 0.0000 <Sz>= 0.0000 <S**2>=-0.0000 S=-0.0000
 Leave Link  401 at Sat Nov  5 15:43:30 2016, MaxMem=   524288000 cpu:              11.2 elap:               1.6
 (Enter /home/ubuntu/g16/l502.exe)
 Integral symmetry usage will be decided dynamically.
 UHF open shell SCF:
 Using DIIS extrapolation, IDIIS=  1040.
 NGot=   524288000 LenX=   524172708 LenY=   524116571
 Requested convergence on RMS density matrix=1.00D-08 within 128 cycles.
 Requested convergence on MAX density matrix=1.00D-06.
 Requested convergence on             energy=1.00D-06.
 No special actions if energy rises.
 Fock matrices will be formed incrementally for  20 cycles.

 Cycle   1  Pass 1  IDiag  1:
 FoFJK:  IHMeth= 1 ICntrl=       0 DoSepK=F KAlg= 0 I1Cent=           0 FoldK=F
 IRaf= 990000000 NMat=       1 IRICut=       1 DoRegI=T DoRafI=F ISym2E= 0 IDoP0=0 IntGTp=1.
 FoFCou: FMM=F IPFlag=           0 FMFlag=      100000 FMFlg1=           0
         NFxFlg=           0 DoJE=F BraDBF=F KetDBF=F FulRan=T
         wScrn=  0.000000 ICntrl=         0 IOpCl=  1 I1Cent=           0 NGrid=           0
         NMat0=    1 NMatS0=      1 NMatT0=    0 NMatD0=    1 NMtDS0=    0 NMtDT0=    0
 Symmetry not used in FoFCou.
 E= -340.181171683716    
 DIIS: error= 3.05D-02 at cycle   1 NSaved=   1.
 NSaved= 1 IEnMin= 1 EnMin= -340.181171683716     IErMin= 1 ErrMin= 3.05D-02
 ErrMax= 3.05D-02  0.00D+00 EMaxC= 1.00D-01 BMatC= 7.96D-01 BMatP= 7.96D-01
 IDIUse=3 WtCom= 6.95D-01 WtEn= 3.05D-01
 Coeff-Com:  0.100D+01
 Coeff-En:   0.100D+01
 Coeff:      0.100D+01
 Gap=    -0.023 Goal=   None    Shift=    0.000
 Gap=    -0.023 Goal=   None    Shift=    0.000
 GapD=   -0.023 DampG=0.250 DampE=0.500 DampFc=0.2500 IDamp=-1.
 Damping current iteration by 2.50D-01
 RMSDP=4.08D-02 MaxDP=1.19D+00              OVMax= 7.77D-01

 Cycle   2  Pass 1  IDiag  1:
 RMSU=  5.23D-03    CP:  9.05D-01
 E= -340.112355120239     Delta-E=        0.068816563477 Rises=F Damp=T
 DIIS: error= 1.33D-02 at cycle   2 NSaved=   2.
 NSaved= 2 IEnMin= 1 EnMin= -340.181171683716     IErMin= 2 ErrMin= 1.33D-02
 ErrMax= 1.33D-02  0.00D+00 EMaxC= 1.00D-01 BMatC= 2.00D-01 BMatP= 7.96D-01
 IDIUse=3 WtCom= 8.67D-01 WtEn= 1.33D-01
 Coeff-Com:  0.167D+00 0.833D+00
 Coeff-En:   0.599D+00 0.401D+00
 Coeff:      0.224D+00 0.776D+00
 Gap=    -0.059 Goal=   None    Shift=    0.000
 Gap=    -0.059 Goal=   None    Shift=    0.000
 RMSDP=2.83D-02 MaxDP=7.69D-01 DE= 6.88D-02 OVMax= 9.91D-01

 Cycle   3  Pass 1  IDiag  1:
 RMSU=  1.08D-02    CP:  6.26D-01  2.02D+00
 E= -340.299525430109     Delta-E=       -0.187170309870 Rises=F Damp=F
 DIIS: error= 1.92D-02 at cycle   3 NSaved=   3.
 NSaved= 3 IEnMin= 3 EnMin= -340.299525430109     IErMin= 2 ErrMin= 1.33D-02
 ErrMax= 1.92D-02  0.00D+00 EMaxC= 1.00D-01 BMatC= 4.54D-01 BMatP= 2.00D-01
 IDIUse=2 WtCom= 0.00D+00 WtEn= 1.00D+00
 Coeff-En:   0.000D+00 0.217D+00 0.783D+00
 Coeff:      0.000D+00 0.217D+00 0.783D+00
 Gap=     0.027 Goal=   None    Shift=    0.000
 Gap=     0.027 Goal=   None    Shift=    0.000
 RMSDP=1.20D-02 MaxDP=3.89D-01 DE=-1.87D-01 OVMax= 9.47D-01

 Cycle   4  Pass 1  IDiag  1:
 RMSU=  6.71D-03    CP:  6.62D-01  2.35D+00  1.39D-01
 E= -338.580000004242     Delta-E=        1.719525425866 Rises=F Damp=F
 DIIS: error= 7.35D-02 at cycle   4 NSaved=   4.
 NSaved= 4 IEnMin= 3 EnMin= -340.299525430109     IErMin= 2 ErrMin= 1.33D-02
 ErrMax= 7.35D-02  0.00D+00 EMaxC= 1.00D-01 BMatC= 4.69D+00 BMatP= 2.00D-01
 IDIUse=2 WtCom= 0.00D+00 WtEn= 1.00D+00
 EnCoef did     4 forward-backward iterations
 Coeff-En:   0.418D-01 0.000D+00 0.819D+00 0.140D+00
 Coeff:      0.418D-01 0.000D+00 0.819D+00 0.140D+00
 Gap=     0.008 Goal=   None    Shift=    0.000
 Gap=     0.008 Goal=   None    Shift=    0.000
 RMSDP=9.01D-03 MaxDP=2.77D-01 DE= 1.72D+00 OVMax= 9.45D-01

 Cycle   5  Pass 1  IDiag  1:
 RMSU=  4.76D-03    CP:  6.73D-01  1.73D+00  6.46D-01  3.87D-01
 E= -340.365767239034     Delta-E=       -1.785767234791 Rises=F Damp=F
 DIIS: error= 2.57D-02 at cycle   5 NSaved=   5.
 NSaved= 5 IEnMin= 5 EnMin= -340.365767239034     IErMin= 2 ErrMin= 1.33D-02
 ErrMax= 2.57D-02  0.00D+00 EMaxC= 1.00D-01 BMatC= 3.52D-01 BMatP= 2.00D-01
 IDIUse=2 WtCom= 0.00D+00 WtEn= 1.00D+00
 Coeff-En:   0.000D+00 0.000D+00 0.370D+00 0.000D+00 0.630D+00
 Coeff:      0.000D+00 0.000D+00 0.370D+00 0.000D+00 0.630D+00
 Gap=     0.071 Goal=   None    Shift=    0.000
 Gap=     0.071 Goal=   None    Shift=    0.000
 RMSDP=3.69D-03 MaxDP=9.79D-02 DE=-1.79D+00 OVMax= 1.20D-01

 Cycle   6  Pass 1  IDiag  1:
 RMSU=  2.66D-03    CP:  6.64D-01  1.82D+00  7.40D-01  1.56D-01  6.97D-01
 E= -340.386787875018     Delta-E=       -0.021020635985 Rises=F Damp=F
 DIIS: error= 2.22D-02 at cycle   6 NSaved=   6.
 NSaved= 6 IEnMin= 6 EnMin= -340.386787875018     IErMin= 2 ErrMin= 1.33D-02
 ErrMax= 2.22D-02  0.00D+00 EMaxC= 1.00D-01 BMatC= 2.76D-01 BMatP= 2.00D-01
 IDIUse=2 WtCom= 0.00D+00 WtEn= 1.00D+00
 EnCoef did     3 forward-backward iterations
 Coeff-En:   0.000D+00 0.000D+00 0.122D-02 0.000D+00 0.436D+00 0.563D+00
 Coeff:      0.000D+00 0.000D+00 0.122D-02 0.000D+00 0.436D+00 0.563D+00
 Gap=     0.128 Goal=   None    Shift=    0.000
 Gap=     0.128 Goal=   None    Shift=    0.000
 RMSDP=2.87D-03 MaxDP=8.68D-02 DE=-2.10D-02 OVMax= 9.50D-02

 Cycle   7  Pass 1  IDiag  1:
 RMSU=  1.43D-03    CP:  6.54D-01  1.77D+00  8.32D-01  2.06D-01  4.75D-01
                    CP:  3.28D-01
 E= -340.416343956745     Delta-E=       -0.029556081726 Rises=F Damp=F
 DIIS: error= 8.24D-03 at cycle   7 NSaved=   7.
 NSaved= 7 IEnMin= 7 EnMin= -340.416343956745     IErMin= 7 ErrMin= 8.24D-03
 ErrMax= 8.24D-03  0.00D+00 EMaxC= 1.00D-01 BMatC= 8.72D-02 BMatP= 2.00D-01
 IDIUse=3 WtCom= 9.18D-01 WtEn= 8.24D-02
 EnCoef did     6 forward-backward iterations
 Coeff-Com: -0.280D-01 0.478D-02 0.480D-01-0.619D-02 0.309D+00 0.357D+00
 Coeff-Com:  0.316D+00
 Coeff-En:   0.000D+00 0.000D+00 0.000D+00 0.000D+00 0.182D+00 0.325D+00
 Coeff-En:   0.492D+00
 Coeff:     -0.257D-01 0.438D-02 0.440D-01-0.568D-02 0.298D+00 0.354D+00
 Coeff:      0.331D+00
 Gap=     0.085 Goal=   None    Shift=    0.000
 Gap=     0.085 Goal=   None    Shift=    0.000
 RMSDP=1.99D-03 MaxDP=7.28D-02 DE=-2.96D-02 OVMax= 7.69D-02

 Cycle   8  Pass 1  IDiag  1:
 RMSU=  6.24D-04    CP:  6.60D-01  1.83D+00  7.82D-01  2.28D-01  7.47D-01
                    CP:  5.31D-01  3.20D-01
 E= -340.440042303073     Delta-E=       -0.023698346328 Rises=F Damp=F
 DIIS: error= 2.13D-03 at cycle   8 NSaved=   8.
 NSaved= 8 IEnMin= 8 EnMin= -340.440042303073     IErMin= 8 ErrMin= 2.13D-03
 ErrMax= 2.13D-03  0.00D+00 EMaxC= 1.00D-01 BMatC= 2.37D-03 BMatP= 8.72D-02
 IDIUse=3 WtCom= 9.79D-01 WtEn= 2.13D-02
 Coeff-Com: -0.154D-01 0.109D-01-0.109D-01-0.185D-02 0.851D-01 0.166D+00
 Coeff-Com:  0.241D+00 0.525D+00
 Coeff-En:   0.000D+00 0.000D+00 0.000D+00 0.000D+00 0.000D+00 0.000D+00
 Coeff-En:   0.000D+00 0.100D+01
 Coeff:     -0.151D-01 0.106D-01-0.107D-01-0.181D-02 0.832D-01 0.162D+00
 Coeff:      0.236D+00 0.535D+00
 Gap=     0.090 Goal=   None    Shift=    0.000
 Gap=     0.090 Goal=   None    Shift=    0.000
 RMSDP=4.38D-04 MaxDP=2.03D-02 DE=-2.37D-02 OVMax= 1.64D-02

 Cycle   9  Pass 1  IDiag  1:
 RMSU=  1.99D-04    CP:  6.60D-01  1.82D+00  7.79D-01  2.21D-01  7.02D-01
                    CP:  5.02D-01  4.15D-01  5.54D-01
 E= -340.440724334160     Delta-E=       -0.000682031087 Rises=F Damp=F
 DIIS: error= 6.37D-04 at cycle   9 NSaved=   9.
 NSaved= 9 IEnMin= 9 EnMin= -340.440724334160     IErMin= 9 ErrMin= 6.37D-04
 ErrMax= 6.37D-04  0.00D+00 EMaxC= 1.00D-01 BMatC= 2.18D-04 BMatP= 2.37D-03
 IDIUse=3 WtCom= 9.94D-01 WtEn= 6.37D-03
 Coeff-Com: -0.589D-02-0.267D-03-0.172D-01 0.677D-03 0.150D-01 0.531D-01
 Coeff-Com:  0.939D-01 0.290D+00 0.571D+00
 Coeff-En:   0.000D+00 0.000D+00 0.000D+00 0.000D+00 0.000D+00 0.000D+00
 Coeff-En:   0.000D+00 0.633D-01 0.937D+00
 Coeff:     -0.585D-02-0.265D-03-0.171D-01 0.673D-03 0.149D-01 0.527D-01
 Coeff:      0.933D-01 0.288D+00 0.573D+00
 Gap=     0.089 Goal=   None    Shift=    0.000
 Gap=     0.089 Goal=   None    Shift=    0.000
 RMSDP=1.22D-04 MaxDP=5.05D-03 DE=-6.82D-04 OVMax= 3.64D-03

 Cycle  10  Pass 1  IDiag  1:
 RMSU=  7.43D-05    CP:  6.60D-01  1.82D+00  7.81D-01  2.21D-01  7.12D-01
                    CP:  5.17D-01  4.16D-01  6.41D-01  7.53D-01
 E= -340.440784834181     Delta-E=       -0.000060500021 Rises=F Damp=F
 DIIS: error= 2.17D-04 at cycle  10 NSaved=  10.
 NSaved=10 IEnMin=10 EnMin= -340.440784834181     IErMin=10 ErrMin= 2.17D-04
 ErrMax= 2.17D-04  0.00D+00 EMaxC= 1.00D-01 BMatC= 2.36D-05 BMatP= 2.18D-04
 IDIUse=3 WtCom= 9.98D-01 WtEn= 2.17D-03
 Coeff-Com: -0.149D-02 0.109D-02-0.300D-02 0.169D-03-0.238D-02-0.184D-02
 Coeff-Com:  0.967D-03 0.804D-01 0.241D+00 0.685D+00
 Coeff-En:   0.000D+00 0.000D+00 0.000D+00 0.000D+00 0.000D+00 0.000D+00
 Coeff-En:   0.000D+00 0.000D+00 0.000D+00 0.100D+01
 Coeff:     -0.149D-02 0.109D-02-0.300D-02 0.169D-03-0.237D-02-0.184D-02
 Coeff:      0.965D-03 0.802D-01 0.241D+00 0.686D+00
 Gap=     0.088 Goal=   None    Shift=    0.000
 Gap=     0.088 Goal=   None    Shift=    0.000
 RMSDP=4.03D-05 MaxDP=1.10D-03 DE=-6.05D-05 OVMax= 1.50D-03

 Cycle  11  Pass 1  IDiag  1:
 RMSU=  3.02D-05    CP:  6.60D-01  1.82D+00  7.80D-01  2.21D-01  7.14D-01
                    CP:  5.19D-01  4.12D-01  6.62D-01  7.93D-01  8.61D-01
 E= -340.440792425926     Delta-E=       -0.000007591745 Rises=F Damp=F
 DIIS: error= 7.31D-05 at cycle  11 NSaved=  11.
 NSaved=11 IEnMin=11 EnMin= -340.440792425926     IErMin=11 ErrMin= 7.31D-05
 ErrMax= 7.31D-05  0.00D+00 EMaxC= 1.00D-01 BMatC= 3.79D-06 BMatP= 2.36D-05
 IDIUse=1 WtCom= 1.00D+00 WtEn= 0.00D+00
 Coeff-Com: -0.341D-03 0.353D-03-0.557D-03 0.564D-04-0.262D-02-0.606D-02
 Coeff-Com: -0.922D-02 0.183D-01 0.658D-01 0.368D+00 0.567D+00
 Coeff:     -0.341D-03 0.353D-03-0.557D-03 0.564D-04-0.262D-02-0.606D-02
 Coeff:     -0.922D-02 0.183D-01 0.658D-01 0.368D+00 0.567D+00
 Gap=     0.088 Goal=   None    Shift=    0.000
 Gap=     0.088 Goal=   None    Shift=    0.000
 RMSDP=1.65D-05 MaxDP=5.97D-04 DE=-7.59D-06 OVMax= 6.86D-04

 Cycle  12  Pass 1  IDiag  1:
 RMSU=  1.04D-05    CP:  6.60D-01  1.82D+00  7.80D-01  2.21D-01  7.15D-01
                    CP:  5.20D-01  4.13D-01  6.72D-01  8.18D-01  9.34D-01
                    CP:  9.11D-01
 E= -340.440793669377     Delta-E=       -0.000001243451 Rises=F Damp=F
 DIIS: error= 2.08D-05 at cycle  12 NSaved=  12.
 NSaved=12 IEnMin=12 EnMin= -340.440793669377     IErMin=12 ErrMin= 2.08D-05
 ErrMax= 2.08D-05  0.00D+00 EMaxC= 1.00D-01 BMatC= 3.84D-07 BMatP= 3.79D-06
 IDIUse=1 WtCom= 1.00D+00 WtEn= 0.00D+00
 Coeff-Com:  0.128D-03-0.636D-04 0.231D-03 0.441D-05-0.500D-03-0.177D-02
 Coeff-Com: -0.364D-02-0.106D-01-0.408D-01-0.186D-01 0.278D+00 0.798D+00
 Coeff:      0.128D-03-0.636D-04 0.231D-03 0.441D-05-0.500D-03-0.177D-02
 Coeff:     -0.364D-02-0.106D-01-0.408D-01-0.186D-01 0.278D+00 0.798D+00
 Gap=     0.088 Goal=   None    Shift=    0.000
 Gap=     0.088 Goal=   None    Shift=    0.000
 RMSDP=8.53D-06 MaxDP=3.39D-04 DE=-1.24D-06 OVMax= 5.77D-04

 Cycle  13  Pass 1  IDiag  1:
 RMSU=  3.33D-06    CP:  6.60D-01  1.83D+00  7.80D-01  2.21D-01  7.15D-01
                    CP:  5.20D-01  4.13D-01  6.77D-01  8.28D-01  9.82D-01
                    CP:  1.02D+00  8.73D-01
 E= -340.440793866739     Delta-E=       -0.000000197361 Rises=F Damp=F
 DIIS: error= 4.94D-06 at cycle  13 NSaved=  13.
 NSaved=13 IEnMin=13 EnMin= -340.440793866739     IErMin=13 ErrMin= 4.94D-06
 ErrMax= 4.94D-06  0.00D+00 EMaxC= 1.00D-01 BMatC= 2.56D-08 BMatP= 3.84D-07
 IDIUse=1 WtCom= 1.00D+00 WtEn= 0.00D+00
 Coeff-Com:  0.132D-03-0.112D-03 0.569D-04 0.277D-05-0.156D-03-0.303D-03
 Coeff-Com: -0.708D-03-0.442D-02-0.202D-01-0.329D-01 0.744D-01 0.333D+00
 Coeff-Com:  0.651D+00
 Coeff:      0.132D-03-0.112D-03 0.569D-04 0.277D-05-0.156D-03-0.303D-03
 Coeff:     -0.708D-03-0.442D-02-0.202D-01-0.329D-01 0.744D-01 0.333D+00
 Coeff:      0.651D+00
 Gap=     0.088 Goal=   None    Shift=    0.000
 Gap=     0.088 Goal=   None    Shift=    0.000
 RMSDP=1.81D-06 MaxDP=5.16D-05 DE=-1.97D-07 OVMax= 1.28D-04

 Cycle  14  Pass 1  IDiag  1:
 RMSU=  1.14D-06    CP:  6.60D-01  1.83D+00  7.80D-01  2.21D-01  7.15D-01
                    CP:  5.20D-01  4.13D-01  6.78D-01  8.28D-01  9.92D-01
                    CP:  1.05D+00  9.26D-01  9.73D-01
 E= -340.440793877878     Delta-E=       -0.000000011140 Rises=F Damp=F
 DIIS: error= 2.65D-06 at cycle  14 NSaved=  14.
 NSaved=14 IEnMin=14 EnMin= -340.440793877878     IErMin=14 ErrMin= 2.65D-06
 ErrMax= 2.65D-06  0.00D+00 EMaxC= 1.00D-01 BMatC= 7.66D-09 BMatP= 2.56D-08
 IDIUse=1 WtCom= 1.00D+00 WtEn= 0.00D+00
 Coeff-Com:  0.775D-04-0.492D-04 0.352D-04-0.197D-05-0.785D-04-0.283D-04
 Coeff-Com:  0.413D-04-0.112D-02-0.565D-02-0.165D-01 0.395D-02 0.669D-01
 Coeff-Com:  0.299D+00 0.654D+00
 Coeff:      0.775D-04-0.492D-04 0.352D-04-0.197D-05-0.785D-04-0.283D-04
 Coeff:      0.413D-04-0.112D-02-0.565D-02-0.165D-01 0.395D-02 0.669D-01
 Coeff:      0.299D+00 0.654D+00
 Gap=     0.088 Goal=   None    Shift=    0.000
 Gap=     0.088 Goal=   None    Shift=    0.000
 RMSDP=8.49D-07 MaxDP=1.77D-05 DE=-1.11D-08 OVMax= 6.38D-05

 Cycle  15  Pass 1  IDiag  1:
 RMSU=  4.56D-07    CP:  6.60D-01  1.83D+00  7.80D-01  2.20D-01  7.15D-01
                    CP:  5.21D-01  4.13D-01  6.78D-01  8.29D-01  9.95D-01
                    CP:  1.07D+00  9.44D-01  1.00D+00  8.94D-01
 E= -340.440793880975     Delta-E=       -0.000000003097 Rises=F Damp=F
 DIIS: error= 9.47D-07 at cycle  15 NSaved=  15.
 NSaved=15 IEnMin=15 EnMin= -340.440793880975     IErMin=15 ErrMin= 9.47D-07
 ErrMax= 9.47D-07  0.00D+00 EMaxC= 1.00D-01 BMatC= 1.11D-09 BMatP= 7.66D-09
 IDIUse=1 WtCom= 1.00D+00 WtEn= 0.00D+00
 Coeff-Com: -0.268D-06 0.880D-05 0.323D-05-0.116D-05-0.200D-04-0.955D-05
 Coeff-Com:  0.113D-03 0.247D-03 0.154D-02 0.116D-02-0.345D-02-0.309D-01
 Coeff-Com: -0.579D-01 0.204D+00 0.885D+00
 Coeff:     -0.268D-06 0.880D-05 0.323D-05-0.116D-05-0.200D-04-0.955D-05
 Coeff:      0.113D-03 0.247D-03 0.154D-02 0.116D-02-0.345D-02-0.309D-01
 Coeff:     -0.579D-01 0.204D+00 0.885D+00
 Gap=     0.088 Goal=   None    Shift=    0.000
 Gap=     0.088 Goal=   None    Shift=    0.000
 RMSDP=3.81D-07 MaxDP=8.86D-06 DE=-3.10D-09 OVMax= 3.13D-05

 Cycle  16  Pass 1  IDiag  1:
 RMSU=  1.61D-07    CP:  6.60D-01  1.83D+00  7.80D-01  2.20D-01  7.15D-01
                    CP:  5.20D-01  4.13D-01  6.78D-01  8.30D-01  9.97D-01
                    CP:  1.07D+00  9.45D-01  1.03D+00  1.00D+00  9.70D-01
 E= -340.440793881403     Delta-E=       -0.000000000428 Rises=F Damp=F
 DIIS: error= 3.28D-07 at cycle  16 NSaved=  16.
 NSaved=16 IEnMin=16 EnMin= -340.440793881403     IErMin=16 ErrMin= 3.28D-07
 ErrMax= 3.28D-07  0.00D+00 EMaxC= 1.00D-01 BMatC= 1.05D-10 BMatP= 1.11D-09
 IDIUse=1 WtCom= 1.00D+00 WtEn= 0.00D+00
 Coeff-Com: -0.388D-05 0.474D-05 0.142D-05-0.598D-06 0.311D-05 0.185D-05
 Coeff-Com:  0.347D-04-0.205D-04 0.331D-03-0.113D-03-0.171D-02-0.128D-01
 Coeff-Com: -0.251D-01 0.558D-01 0.283D+00 0.700D+00
 Coeff:     -0.388D-05 0.474D-05 0.142D-05-0.598D-06 0.311D-05 0.185D-05
 Coeff:      0.347D-04-0.205D-04 0.331D-03-0.113D-03-0.171D-02-0.128D-01
 Coeff:     -0.251D-01 0.558D-01 0.283D+00 0.700D+00
 Gap=     0.088 Goal=   None    Shift=    0.000
 Gap=     0.088 Goal=   None    Shift=    0.000
 RMSDP=9.30D-08 MaxDP=2.29D-06 DE=-4.28D-10 OVMax= 5.12D-06

 Cycle  17  Pass 1  IDiag  1:
 RMSU=  4.30D-08    CP:  6.60D-01  1.83D+00  7.80D-01  2.20D-01  7.15D-01
                    CP:  5.21D-01  4.13D-01  6.78D-01  8.30D-01  9.97D-01
                    CP:  1.07D+00  9.46D-01  1.04D+00  1.01D+00  9.63D-01
                    CP:  9.61D-01
 E= -340.440793881447     Delta-E=       -0.000000000044 Rises=F Damp=F
 DIIS: error= 1.21D-07 at cycle  17 NSaved=  17.
 NSaved=17 IEnMin=17 EnMin= -340.440793881447     IErMin=17 ErrMin= 1.21D-07
 ErrMax= 1.21D-07  0.00D+00 EMaxC= 1.00D-01 BMatC= 1.13D-11 BMatP= 1.05D-10
 IDIUse=1 WtCom= 1.00D+00 WtEn= 0.00D+00
 Coeff-Com: -0.946D-06 0.505D-06-0.671D-06-0.174D-07 0.165D-05 0.262D-05
 Coeff-Com:  0.888D-05-0.491D-04-0.746D-04-0.426D-03-0.336D-03-0.184D-02
 Coeff-Com: -0.140D-02 0.235D-01 0.529D-01 0.202D+00 0.726D+00
 Coeff:     -0.946D-06 0.505D-06-0.671D-06-0.174D-07 0.165D-05 0.262D-05
 Coeff:      0.888D-05-0.491D-04-0.746D-04-0.426D-03-0.336D-03-0.184D-02
 Coeff:     -0.140D-02 0.235D-01 0.529D-01 0.202D+00 0.726D+00
 Gap=     0.088 Goal=   None    Shift=    0.000
 Gap=     0.088 Goal=   None    Shift=    0.000
 RMSDP=2.49D-08 MaxDP=6.45D-07 DE=-4.40D-11 OVMax= 8.08D-07

 Cycle  18  Pass 1  IDiag  1:
 RMSU=  1.32D-08    CP:  6.60D-01  1.83D+00  7.80D-01  2.20D-01  7.15D-01
                    CP:  5.21D-01  4.13D-01  6.78D-01  8.30D-01  9.97D-01
                    CP:  1.07D+00  9.46D-01  1.04D+00  1.01D+00  9.53D-01
                    CP:  9.66D-01  9.53D-01
 E= -340.440793881450     Delta-E=       -0.000000000003 Rises=F Damp=F
 DIIS: error= 2.15D-08 at cycle  18 NSaved=  18.
 NSaved=18 IEnMin=18 EnMin= -340.440793881450     IErMin=18 ErrMin= 2.15D-08
 ErrMax= 2.15D-08  0.00D+00 EMaxC= 1.00D-01 BMatC= 8.92D-13 BMatP= 1.13D-11
 IDIUse=1 WtCom= 1.00D+00 WtEn= 0.00D+00
 Coeff-Com: -0.106D-06-0.141D-06-0.315D-06-0.230D-08 0.156D-05 0.259D-05
 Coeff-Com:  0.101D-05-0.175D-04-0.779D-04-0.187D-03-0.168D-04 0.543D-03
 Coeff-Com:  0.285D-02 0.612D-02-0.217D-01-0.266D-01 0.387D+00 0.652D+00
 Coeff:     -0.106D-06-0.141D-06-0.315D-06-0.230D-08 0.156D-05 0.259D-05
 Coeff:      0.101D-05-0.175D-04-0.779D-04-0.187D-03-0.168D-04 0.543D-03
 Coeff:      0.285D-02 0.612D-02-0.217D-01-0.266D-01 0.387D+00 0.652D+00
 Gap=     0.088 Goal=   None    Shift=    0.000
 Gap=     0.088 Goal=   None    Shift=    0.000
 RMSDP=1.15D-08 MaxDP=4.55D-07 DE=-3.07D-12 OVMax= 2.26D-07

 Cycle  19  Pass 1  IDiag  1:
 RMSU=  5.06D-09    CP:  6.60D-01  1.83D+00  7.80D-01  2.20D-01  7.15D-01
                    CP:  5.21D-01  4.13D-01  6.78D-01  8.30D-01  9.97D-01
                    CP:  1.07D+00  9.46D-01  1.04D+00  1.01D+00  9.50D-01
                    CP:  9.75D-01  1.04D+00  9.26D-01
 E= -340.440793881454     Delta-E=       -0.000000000004 Rises=F Damp=F
 DIIS: error= 7.89D-09 at cycle  19 NSaved=  19.
 NSaved=19 IEnMin=19 EnMin= -340.440793881454     IErMin=19 ErrMin= 7.89D-09
 ErrMax= 7.89D-09  0.00D+00 EMaxC= 1.00D-01 BMatC= 4.34D-14 BMatP= 8.92D-13
 IDIUse=1 WtCom= 1.00D+00 WtEn= 0.00D+00
 Coeff-Com:  0.277D-07-0.731D-08-0.271D-08 0.155D-08 0.182D-06 0.360D-06
 Coeff-Com: -0.236D-06 0.109D-05-0.568D-05 0.695D-05 0.495D-04 0.199D-03
 Coeff-Com:  0.603D-03 0.493D-03-0.106D-01-0.249D-01 0.369D-01 0.146D+00
 Coeff-Com:  0.851D+00
 Coeff:      0.277D-07-0.731D-08-0.271D-08 0.155D-08 0.182D-06 0.360D-06
 Coeff:     -0.236D-06 0.109D-05-0.568D-05 0.695D-05 0.495D-04 0.199D-03
 Coeff:      0.603D-03 0.493D-03-0.106D-01-0.249D-01 0.369D-01 0.146D+00
 Coeff:      0.851D+00
 Gap=     0.088 Goal=   None    Shift=    0.000
 Gap=     0.088 Goal=   None    Shift=    0.000
 RMSDP=2.56D-09 MaxDP=7.38D-08 DE=-3.87D-12 OVMax= 5.66D-08

 SCF Done:  E(UB3LYP) =  -340.440793881     A.U. after   19 cycles
            NFock= 19  Conv=0.26D-08     -V/T= 2.0065
 <Sx>= 0.0000 <Sy>= 0.0000 <Sz>= 0.0000 <S**2>=-0.0000 S=-0.0000
 <L.S>= 0.000000000000E+00
 KE= 3.382363697745D+02 PE=-1.393777361734D+03 EE= 4.131396712684D+02
 Annihilation of the first spin contaminant:
 S**2 before annihilation    -0.0000,   after    -0.0000
 Leave Link  502 at Sat Nov  5 15:45:27 2016, MaxMem=   524288000 cpu:             818.3 elap:             116.9
 (Enter /home/ubuntu/g16/l601.exe)
 Copying SCF densities to generalized density rwf, IOpCl= 1 IROHF=0.

 **********************************************************************

            Population analysis using the SCF density.

 **********************************************************************

 Orbital symmetries:
 Alpha Orbitals:
       Occupied  (A) (A) (A) (A) (A) (A) (A) (A) (A) (A) (A) (A)
                 (A) (A) (A) (A) (A) (A) (A) (A) (A) (A) (A) (A)
                 (A) (A) (A)
       Virtual   (A) (A) (A) (A) (A) (A) (A) (A) (A) (A) (A) (A)
                 (A) (A) (A) (A) (A) (A) (A) (A) (A) (A) (A) (A)
                 (A) (A) (A) (A) (A) (A) (A) (A) (A) (A) (A) (A)
                 (A) (A) (A) (A) (A) (A) (A) (A) (A) (A) (A) (A)
                 (A) (A) (A) (A) (A) (A) (A) (A) (A) (A) (A) (A)
                 (A) (A) (A) (A) (A) (A) (A) (A) (A) (A) (A) (A)
                 (A) (A) (A) (A) (A) (A) (A) (A) (A) (A) (A) (A)
                 (A) (A) (A) (A) (A) (A) (A) (A) (A) (A) (A) (A)
                 (A) (A) (A) (A) (A) (A) (A) (A) (A) (A) (A) (A)
                 (A) (A) (A) (A) (A) (A) (A) (A) (A) (A) (A) (A)
                 (A) (A) (A) (A) (A) (A) (A) (A) (A) (A) (A) (A)
                 (A) (A) (A) (A) (A) (A) (A) (A) (A) (A) (A) (A)
                 (A) (A) (A) (A) (A) (A) (A) (A) (A) (A) (A) (A)
                 (A) (A) (A) (A) (A) (A) (A) (A) (A) (A) (A) (A)
                 (A) (A) (A) (A) (A) (A) (A) (A) (A) (A) (A) (A)
                 (A) (A) (A) (A) (A) (A) (A) (A) (A) (A) (A) (A)
                 (A)
 Beta  Orbitals:
       Occupied  (A) (A) (A) (A) (A) (A) (A) (A) (A) (A) (A) (A)
                 (A) (A) (A) (A) (A) (A) (A) (A) (A) (A) (A) (A)
                 (A) (A) (A)
       Virtual   (A) (A) (A) (A) (A) (A) (A) (A) (A) (A) (A) (A)
                 (A) (A) (A) (A) (A) (A) (A) (A) (A) (A) (A) (A)
                 (A) (A) (A) (A) (A) (A) (A) (A) (A) (A) (A) (A)
                 (A) (A) (A) (A) (A) (A) (A) (A) (A) (A) (A) (A)
                 (A) (A) (A) (A) (A) (A) (A) (A) (A) (A) (A) (A)
                 (A) (A) (A) (A) (A) (A) (A) (A) (A) (A) (A) (A)
                 (A) (A) (A) (A) (A) (A) (A) (A) (A) (A) (A) (A)
                 (A) (A) (A) (A) (A) (A) (A) (A) (A) (A) (A) (A)
                 (A) (A) (A) (A) (A) (A) (A) (A) (A) (A) (A) (A)
                 (A) (A) (A) (A) (A) (A) (A) (A) (A) (A) (A) (A)
                 (A) (A) (A) (A) (A) (A) (A) (A) (A) (A) (A) (A)
                 (A) (A) (A) (A) (A) (A) (A) (A) (A) (A) (A) (A)
                 (A) (A) (A) (A) (A) (A) (A) (A) (A) (A) (A) (A)
                 (A) (A) (A) (A) (A) (A) (A) (A) (A) (A) (A) (A)
                 (A) (A) (A) (A) (A) (A) (A) (A) (A) (A) (A) (A)
                 (A) (A) (A) (A) (A) (A) (A) (A) (A) (A) (A) (A)
                 (A)
 The electronic state is 1-A.
     Natural Orbital Coefficients:
                           1         2         3         4         5
     Eigenvalues --     2.00000   2.00000   2.00000   2.00000   2.00000
   1 1   C  1S         -0.03736  -0.18935   0.03060   0.02653  -0.00641
   2        2S          0.00190   0.27184   0.00003  -0.05142   0.07308
   3        3S          0.00185   0.38406   0.06455  -0.04627  -0.10871
   4        4S         -0.07538   0.06227   0.70163  -0.12820  -0.55409
   5        5PX        -0.01064   0.10893   0.02243   0.01030  -0.23757
   6        5PY         0.02362  -0.08102  -0.12649   0.01964   0.06698
   7        5PZ         0.26977   0.00232   0.04109  -0.07285   0.00319
   8        6PX         0.00045  -0.01285  -0.01731  -0.00967  -0.01007
   9        6PY        -0.00987   0.21887   0.02959  -0.00758  -0.00167
  10        6PZ         0.11808   0.00014   0.02268  -0.03765   0.00254
  11        7PX         0.00609  -0.02547  -0.07673   0.01261   0.08174
  12        7PY        -0.01345  -0.05587   0.06466  -0.00483  -0.13001
  13        7PZ         0.00241  -0.00246  -0.00076  -0.02371  -0.00106
  14        8D 0       -0.00007  -0.01376   0.00062   0.00224   0.00261
  15        8D+1       -0.00646  -0.00015  -0.00117  -0.00460  -0.00003
  16        8D-1        0.00738   0.00316   0.00608   0.02572   0.00266
  17        8D+2       -0.00097   0.00666   0.03222  -0.00678  -0.00878
  18        8D-2       -0.00087  -0.00328   0.01850  -0.00598   0.00428
  19        9D 0       -0.00044  -0.00360   0.00260   0.00261  -0.00330
  20        9D+1       -0.02341  -0.00039   0.00028   0.00711   0.00088
  21        9D-1        0.00535   0.00186   0.00354   0.01467   0.00149
  22        9D+2        0.00457  -0.03234   0.01679  -0.02375   0.13182
  23        9D-2        0.00943  -0.10589  -0.03768   0.00994   0.00173
  24 2   N  1S          0.01056  -0.08278  -0.04501  -0.02268   0.02919
  25        2S         -0.00368   0.13595   0.09595  -0.02237  -0.08962
  26        3S         -0.00483   0.28233   0.22001  -0.06590  -0.21021
  27        4S          0.01935   0.07619   0.05277  -0.04227   0.02879
  28        5PX         0.00947  -0.24999  -0.10315   0.05061   0.18092
  29        5PY         0.00134   0.01086   0.04550  -0.03285   0.03527
  30        5PZ         0.00899   0.00246  -0.02420  -0.06827  -0.00442
  31        6PX         0.00574   0.04714   0.03267  -0.03478   0.04044
  32        6PY        -0.00091   0.01333   0.03700  -0.01988   0.02984
  33        6PZ         0.01067   0.00099  -0.01099  -0.04325  -0.00222
  34        7PX        -0.00236   0.09462   0.11409  -0.03680  -0.09866
  35        7PY        -0.00115   0.02048   0.00998  -0.00165   0.01380
  36        7PZ         0.00900   0.00041   0.00136  -0.00428   0.00025
  37        8D 0        0.00020  -0.00502   0.00256  -0.00076   0.00098
  38        8D+1       -0.01625   0.00022  -0.00475   0.00276  -0.00068
  39        8D-1        0.00055   0.00021   0.00051   0.00177   0.00020
  40        8D+2       -0.00039   0.00686   0.00023  -0.00002   0.00089
  41        8D-2       -0.00072   0.00622   0.00170  -0.00114  -0.00383
  42        9D 0       -0.00092  -0.01199   0.00020   0.00521  -0.01348
  43        9D+1       -0.03556  -0.00022  -0.00474   0.00832  -0.00024
  44        9D-1        0.00059   0.00036   0.00060   0.00257   0.00031
  45        9D+2        0.00034   0.02499   0.01199  -0.01008   0.01591
  46        9D-2       -0.00067  -0.00228  -0.00285   0.00258  -0.00130
  47 3   N  1S          0.01145   0.08052   0.01878  -0.00047  -0.04388
  48        2S         -0.01690  -0.04648  -0.02355   0.03844   0.05425
  49        3S         -0.02565  -0.18265  -0.11956   0.09802   0.04794
  50        4S         -0.01033  -0.14488  -0.17416   0.07320   0.09299
  51        5PX        -0.01589   0.08586   0.02498  -0.01007  -0.06615
  52        5PY        -0.00063   0.03799  -0.01512  -0.00984  -0.00747
  53        5PZ        -0.11437   0.00422  -0.05001   0.00170  -0.00825
  54        6PX        -0.00566   0.11403   0.06835  -0.03394  -0.03970
  55        6PY        -0.00050   0.02020  -0.02089  -0.00058  -0.01584
  56        6PZ        -0.05218   0.00278  -0.02631   0.00775  -0.00463
  57        7PX         0.00178   0.01742   0.02745  -0.01111  -0.00686
  58        7PY         0.00032  -0.00374  -0.01430   0.00353  -0.00500
  59        7PZ        -0.01599   0.00059  -0.00459   0.00974  -0.00072
  60        8D 0       -0.00036   0.00239   0.00020  -0.00049  -0.00201
  61        8D+1        0.00307  -0.00028   0.00285   0.00362   0.00051
  62        8D-1       -0.00017   0.00002  -0.00013  -0.00007  -0.00002
  63        8D+2        0.00067  -0.00448   0.00023   0.00076   0.00373
  64        8D-2       -0.00016  -0.00081  -0.00123   0.00175  -0.00218
  65        9D 0        0.00018   0.00760   0.00449  -0.00278  -0.00146
  66        9D+1       -0.00632  -0.00023  -0.00005   0.00152   0.00012
  67        9D-1        0.00022   0.00009  -0.00004   0.00052   0.00001
  68        9D+2       -0.00025  -0.01410  -0.00732   0.00453   0.00486
  69        9D-2        0.00013   0.00015  -0.00044   0.00036   0.00193
  70 4   C  1S         -0.00311   0.01541   0.23343  -0.07425  -0.09316
  71        2S          0.01264   0.04285  -0.20721   0.01041   0.02573
  72        3S          0.01893  -0.00067  -0.23176   0.00398   0.13239
  73        4S          0.03958   0.04598  -0.55793   0.11902   0.02863
  74        5PX        -0.00448   0.15087  -0.21497   0.06789  -0.17250
  75        5PY        -0.01910   0.10130   0.31106  -0.09250   0.14331
  76        5PZ         0.13937  -0.02508  -0.03275  -0.25346  -0.02458
  77        6PX        -0.00432   0.12797  -0.14695   0.03997  -0.03694
  78        6PY        -0.01931   0.11330   0.23077  -0.06328   0.13187
  79        6PZ         0.05938  -0.01404  -0.01827  -0.13624  -0.01294
  80        7PX        -0.00702  -0.01749   0.02958   0.00131  -0.06417
  81        7PY         0.00244   0.00742  -0.00643   0.00522   0.02254
  82        7PZ         0.00308  -0.00152  -0.00190  -0.01312  -0.00125
  83        8D 0        0.00039  -0.00528  -0.01260   0.00465  -0.01017
  84        8D+1       -0.00482   0.00208   0.00488   0.01794   0.00249
  85        8D-1        0.01560  -0.00078   0.00047  -0.01156  -0.00074
  86        8D+2        0.00113  -0.01411  -0.00773   0.00257  -0.00171
  87        8D-2       -0.00035   0.01536  -0.00976   0.00324  -0.01428
  88        9D 0        0.00021   0.00079  -0.00060  -0.00030   0.00100
  89        9D+1        0.00249   0.00026   0.00014   0.00069   0.00003
  90        9D-1        0.00454  -0.00061  -0.00065  -0.00610  -0.00061
  91        9D+2        0.00490  -0.03789  -0.02002   0.00489  -0.00596
  92        9D-2        0.00093  -0.00210  -0.01826   0.00359  -0.00075
  93 5   C  1S         -0.01213   0.02678   0.01614  -0.01001  -0.03914
  94        2S          0.00352   0.01977   0.01432  -0.02338   0.16261
  95        3S          0.01722  -0.11455   0.05167  -0.02789   0.21093
  96        4S         -0.04050  -0.23249   0.32334  -0.09860  -0.03927
  97        5PX         0.01036  -0.13623   0.07643  -0.04505   0.08767
  98        5PY         0.00199  -0.03823  -0.04498  -0.00903   0.07858
  99        5PZ         0.15404  -0.03550  -0.07877  -0.32949  -0.04425
 100        6PX        -0.01727   0.12213   0.02261  -0.00297  -0.06302
 101        6PY         0.01301  -0.06494   0.00257   0.00489   0.04017
 102        6PZ         0.07364  -0.02232  -0.04925  -0.20146  -0.02654
 103        7PX        -0.00583  -0.03306   0.08971  -0.00856  -0.02856
 104        7PY        -0.00475  -0.03459   0.00926  -0.00993   0.00419
 105        7PZ         0.00101  -0.00319  -0.00731  -0.02763  -0.00341
 106        8D 0        0.00015  -0.00198   0.00038   0.00089  -0.00528
 107        8D+1        0.00236  -0.00087  -0.00017  -0.00891  -0.00041
 108        8D-1        0.01048  -0.00053  -0.00214  -0.00590  -0.00136
 109        8D+2        0.00050  -0.00716   0.00209  -0.00254  -0.00039
 110        8D-2       -0.00085   0.00805   0.02227  -0.00445   0.00468
 111        9D 0        0.00062  -0.00267   0.00055  -0.00024   0.00120
 112        9D+1        0.00027  -0.00033  -0.00026  -0.00229  -0.00020
 113        9D-1        0.00074  -0.00066  -0.00146  -0.00408  -0.00069
 114        9D+2       -0.00539   0.07247  -0.03379   0.01320  -0.02521
 115        9D-2       -0.00459   0.00627  -0.00659  -0.00106  -0.04038
 116 6   C  1S         -0.01300   0.00932   0.05994  -0.00906  -0.10164
 117        2S         -0.01785   0.04905   0.00659  -0.01911   0.11618
 118        3S         -0.02500   0.02565  -0.08536   0.01411   0.01369
 119        4S          0.06672   0.25865  -0.43557   0.10918   0.26434
 120        5PX         0.01262   0.07313  -0.15431   0.03967   0.06897
 121        5PY        -0.00947   0.03812   0.06997  -0.01041   0.01360
 122        5PZ         0.20321  -0.01086  -0.04797  -0.11516  -0.02913
 123        6PX        -0.01375  -0.01669   0.02462  -0.01047  -0.00417
 124        6PY         0.00959  -0.20081   0.09837  -0.01944   0.08490
 125        6PZ         0.10155  -0.00632  -0.02850  -0.06518  -0.01623
 126        7PX         0.00863   0.03809  -0.07757   0.01962   0.02553
 127        7PY         0.00743   0.01962  -0.07039  -0.00143   0.08502
 128        7PZ         0.00574  -0.00158  -0.00497  -0.01308  -0.00246
 129        8D 0        0.00036  -0.00270  -0.00301   0.00161  -0.00801
 130        8D+1        0.01132  -0.00024  -0.00108  -0.00399  -0.00096
 131        8D-1        0.00491   0.00293   0.00521   0.02454   0.00240
 132        8D+2        0.00021  -0.01398   0.00970  -0.00348  -0.00262
 133        8D-2       -0.00030   0.00504  -0.00239   0.00174  -0.00307
 134        9D 0       -0.00058   0.00142  -0.00525   0.00153  -0.00576
 135        9D+1        0.00330   0.00028   0.00123   0.00233   0.00029
 136        9D-1        0.00165   0.00096   0.00153   0.00735   0.00067
 137        9D+2        0.00710   0.03028  -0.04668   0.01486   0.02068
 138        9D-2        0.00547  -0.06604   0.01139  -0.00421   0.02775
 139 7   C  1S         -0.00107  -0.06519   0.00562   0.02058  -0.04469
 140        2S         -0.00330   0.11280  -0.04590  -0.00426   0.17581
 141        3S          0.01162  -0.01118  -0.16236   0.03484   0.17380
 142        4S         -0.05362  -0.20227   0.40887  -0.07023  -0.38397
 143        5PX         0.01411  -0.04614  -0.03256   0.00715  -0.01712
 144        5PY         0.00286  -0.01778   0.02241  -0.01306  -0.00145
 145        5PZ         0.25916   0.03132   0.04204   0.23065   0.01142
 146        6PX         0.01332  -0.22935  -0.03495   0.00018   0.13367
 147        6PY         0.00139  -0.17608   0.08154  -0.02291   0.02133
 148        6PZ         0.13573   0.01933   0.02510   0.14322   0.00760
 149        7PX         0.00399  -0.00526  -0.02472  -0.00325   0.02258
 150        7PY         0.01814   0.04992  -0.12007   0.01812   0.09112
 151        7PZ         0.00603   0.00277   0.00310   0.02392   0.00150
 152        8D 0        0.00022  -0.00321   0.00081   0.00089  -0.00732
 153        8D+1        0.01111   0.00229   0.00566   0.01681   0.00209
 154        8D-1       -0.00984   0.00058   0.00229   0.00621   0.00142
 155        8D+2        0.00050  -0.00267   0.00303  -0.00146  -0.00135
 156        8D-2       -0.00240   0.00042   0.01153  -0.00184  -0.00644
 157        9D 0       -0.00024  -0.00126   0.00166   0.00061  -0.00351
 158        9D+1        0.00419   0.00072   0.00168   0.00405   0.00049
 159        9D-1        0.00009   0.00057   0.00159   0.00491   0.00071
 160        9D+2       -0.00039  -0.04745   0.00055  -0.00347   0.05563
 161        9D-2        0.00172   0.03981  -0.01387  -0.00224   0.04361
 162 8   C  1S          0.00951  -0.00869   0.06843   0.00807  -0.01296
 163        2S          0.00644   0.10842  -0.07829  -0.01144   0.10665
 164        3S          0.03244  -0.06646  -0.19492   0.01669   0.08394
 165        4S          0.06671   0.10427  -0.48593   0.07946   0.52724
 166        5PX        -0.00588   0.05047  -0.02042  -0.00272  -0.04014
 167        5PY        -0.03169   0.02388   0.16153  -0.01397  -0.14080
 168        5PZ         0.28701   0.03940   0.08795   0.27602   0.02853
 169        6PX         0.02217  -0.25006  -0.11003   0.00581   0.23815
 170        6PY        -0.00793   0.14612   0.06023  -0.00612  -0.03419
 171        6PZ         0.13850   0.02334   0.05210   0.17188   0.01806
 172        7PX         0.00698   0.00523  -0.02939   0.00101   0.01380
 173        7PY        -0.01795  -0.03085   0.14692  -0.01984  -0.12417
 174        7PZ         0.01297   0.00502   0.01029   0.04084   0.00437
 175        8D 0       -0.00009  -0.00639   0.00020   0.00142  -0.00658
 176        8D+1       -0.00736  -0.00150  -0.00095  -0.01292  -0.00040
 177        8D-1       -0.01327  -0.00017  -0.00187   0.00274  -0.00010
 178        8D+2        0.00019  -0.00079  -0.00568   0.00260  -0.00248
 179        8D-2       -0.00184  -0.00291   0.00671   0.00062  -0.00469
 180        9D 0        0.00148  -0.00649  -0.00632   0.00041   0.00200
 181        9D+1        0.00857   0.00030   0.00164  -0.00163   0.00032
 182        9D-1        0.00474   0.00097   0.00123   0.00540   0.00042
 183        9D+2       -0.00784   0.10765   0.03139  -0.00910  -0.03152
 184        9D-2        0.00341   0.02854  -0.00609   0.00268  -0.00157
 185 9   H  1S         -0.00636   0.11255   0.05040   0.00364   0.01319
 186        2S         -0.00595   0.19144   0.03599   0.02681  -0.02911
 187        3S         -0.00213  -0.00132   0.00912  -0.00141   0.00590
 188        4PX         0.00018   0.00025   0.00050  -0.00046   0.00187
 189        4PY        -0.00008   0.00474  -0.00152   0.00047   0.00338
 190        4PZ         0.00484  -0.00126  -0.00278  -0.01154  -0.00154
 191        5PX        -0.00167   0.03247  -0.01462   0.00817  -0.01929
 192        5PY        -0.00028   0.03095   0.00101   0.00660  -0.00958
 193        5PZ         0.00070  -0.00124  -0.00261  -0.00973  -0.00128
 194 10  H  1S         -0.01859  -0.05605   0.15344  -0.05154   0.01897
 195        2S         -0.02822  -0.16401   0.25061  -0.07629  -0.07070
 196        3S          0.00200   0.00189  -0.00289   0.00054   0.00715
 197        4PX        -0.00122   0.00063   0.00439  -0.00201   0.00429
 198        4PY        -0.00035   0.00110   0.00279  -0.00052   0.00040
 199        4PZ         0.00674  -0.00039  -0.00173  -0.00405  -0.00102
 200        5PX        -0.00509  -0.03796   0.04688  -0.01423  -0.01931
 201        5PY         0.00066  -0.01040   0.00531  -0.00112  -0.00038
 202        5PZ         0.00379  -0.00013  -0.00108  -0.00166  -0.00056
 203 11  H  1S         -0.00237   0.07011  -0.02070  -0.01149   0.12134
 204        2S          0.01346   0.07091  -0.13397   0.01278   0.17522
 205        3S         -0.00269  -0.01209   0.01257  -0.00235  -0.01636
 206        4PX         0.00003   0.00258  -0.00053  -0.00058   0.00436
 207        4PY         0.00055  -0.00605   0.00019   0.00072  -0.00777
 208        4PZ         0.00874   0.00114   0.00151   0.00860   0.00043
 209        5PX         0.00103   0.00351  -0.01520   0.00196   0.01978
 210        5PY        -0.00393  -0.01463   0.03075  -0.00463  -0.02582
 211        5PZ         0.00373   0.00098   0.00119   0.00831   0.00047
 212 12  H  1S         -0.02464   0.10516   0.08912  -0.02318  -0.05034
 213        2S         -0.04425   0.11038   0.20043  -0.03263  -0.20606
 214        3S          0.00100   0.01518  -0.01602   0.00157   0.03396
 215        4PX         0.00066  -0.00350  -0.00271   0.00078   0.00014
 216        4PY         0.00043  -0.00716   0.00195   0.00076  -0.00100
 217        4PZ         0.00969   0.00146   0.00322   0.01041   0.00108
 218        5PX         0.00510  -0.02683  -0.02443   0.00441   0.02503
 219        5PY         0.00864  -0.01327  -0.03395   0.00306   0.05212
 220        5PZ        -0.00029   0.00101   0.00216   0.00984   0.00098
                           6         7         8         9        10
     Eigenvalues --     2.00000   2.00000   2.00000   2.00000   2.00000
   1 1   C  1S         -0.02368   0.46315  -0.32053  -0.16174  -0.05436
   2        2S         -0.02783   0.01683  -0.01176  -0.03173   0.01321
   3        3S         -0.16866  -0.06906   0.05764  -0.13301   0.02574
   4        4S          0.28448  -0.11192  -0.05475   0.08190   0.14087
   5        5PX         0.09657   0.01734   0.00118  -0.01819  -0.00531
   6        5PY         0.07282   0.00739   0.01274   0.01293   0.05105
   7        5PZ         0.00439   0.12548   0.31574  -0.02463  -0.03180
   8        6PX         0.06709  -0.00163   0.01936   0.04376   0.08369
   9        6PY        -0.27462  -0.04394   0.04001  -0.15897  -0.11247
  10        6PZ         0.00467   0.07281   0.16818  -0.00736  -0.01428
  11        7PX         0.06212   0.06262  -0.01676  -0.04141   0.00134
  12        7PY         0.18649  -0.03987  -0.02981   0.09433  -0.00181
  13        7PZ        -0.00019   0.01343   0.03088  -0.00029  -0.00338
  14        8D 0       -0.00979  -0.00150   0.00055  -0.00098  -0.00129
  15        8D+1       -0.00037   0.00114   0.01236  -0.00269  -0.00284
  16        8D-1        0.00231  -0.00042   0.00000  -0.00060   0.00111
  17        8D+2        0.01356   0.00413   0.00062   0.01105  -0.00733
  18        8D-2        0.00914  -0.02238   0.00225  -0.00425   0.00021
  19        9D 0       -0.01303   0.00307  -0.00105  -0.00763  -0.00740
  20        9D+1        0.00181   0.00006  -0.01097   0.00485   0.00326
  21        9D-1        0.00124  -0.00013   0.00025  -0.00047   0.00058
  22        9D+2       -0.03884  -0.01382   0.00114   0.06673   0.00982
  23        9D-2        0.08495   0.06212  -0.01547   0.03880   0.04793
  24 2   N  1S         -0.14331  -0.01194  -0.01650   0.09498   0.39594
  25        2S          0.17383   0.02407  -0.03481   0.04701  -0.10626
  26        3S          0.32704   0.01545  -0.00594   0.05257  -0.12323
  27        4S          0.07175  -0.03246   0.06026   0.03497  -0.03339
  28        5PX        -0.06926  -0.00934  -0.03196   0.01472  -0.07708
  29        5PY         0.11588  -0.28197   0.06166  -0.01514   0.02475
  30        5PZ        -0.01743  -0.02138   0.15355  -0.06389  -0.05078
  31        6PX         0.04742  -0.02665   0.02254   0.05038   0.03400
  32        6PY         0.05170  -0.15881   0.03395  -0.00624   0.00136
  33        6PZ        -0.00846  -0.00228   0.10238  -0.03422  -0.02874
  34        7PX         0.00682  -0.04079   0.03637   0.04763   0.01930
  35        7PY        -0.03068  -0.00297   0.00715   0.00442  -0.00604
  36        7PZ        -0.00002   0.00546   0.02217  -0.00343  -0.00356
  37        8D 0        0.00173   0.00000   0.00091   0.00172   0.00140
  38        8D+1       -0.00174  -0.01300  -0.01952  -0.00225  -0.00029
  39        8D-1        0.00022   0.00022   0.00015   0.00010   0.00015
  40        8D+2       -0.00292  -0.00131  -0.00103  -0.00171  -0.00189
  41        8D-2        0.00341  -0.01596   0.00356  -0.00175  -0.00021
  42        9D 0        0.00077   0.00587  -0.00343  -0.00515  -0.00332
  43        9D+1       -0.00025  -0.01371  -0.03323   0.00265   0.00324
  44        9D-1        0.00021   0.00004   0.00134  -0.00041  -0.00019
  45        9D+2        0.00152  -0.00552   0.00392   0.00890   0.00182
  46        9D-2       -0.01004  -0.00046   0.00108  -0.00508  -0.00700
  47 3   N  1S          0.04446  -0.11052  -0.00718   0.00307   0.25161
  48        2S         -0.21826  -0.01303  -0.02580  -0.05789   0.04118
  49        3S         -0.39601   0.00759  -0.04184  -0.14525   0.05869
  50        4S         -0.14762   0.04358  -0.05858  -0.09756   0.02506
  51        5PX        -0.16672  -0.03406   0.03967  -0.06992   0.16276
  52        5PY         0.08207  -0.23169   0.05244  -0.01741   0.00334
  53        5PZ        -0.02344  -0.12711  -0.11893  -0.04712  -0.02191
  54        6PX        -0.00109  -0.02428   0.02621   0.00516   0.07322
  55        6PY         0.03980  -0.10834   0.02297  -0.01049   0.00766
  56        6PZ        -0.01272  -0.07363  -0.08553  -0.02281  -0.00826
  57        7PX         0.02350  -0.00623   0.00837   0.01469  -0.00495
  58        7PY         0.00649  -0.00365  -0.00071  -0.00520   0.00143
  59        7PZ        -0.00160  -0.01787  -0.03805   0.00007   0.00274
  60        8D 0       -0.00563  -0.00078   0.00182  -0.00236   0.00661
  61        8D+1        0.00167   0.00511  -0.00440   0.00486   0.00334
  62        8D-1       -0.00009  -0.00025   0.00015  -0.00024  -0.00016
  63        8D+2        0.00969   0.00365  -0.00354   0.00459  -0.01164
  64        8D-2       -0.00940   0.02165  -0.00457   0.00091  -0.00054
  65        9D 0        0.00564  -0.00106   0.00102   0.00302   0.00147
  66        9D+1        0.00045  -0.00008  -0.00408   0.00156   0.00108
  67        9D-1       -0.00007  -0.00050  -0.00054  -0.00020  -0.00006
  68        9D+2       -0.01389   0.00248  -0.00180  -0.00485  -0.00256
  69        9D-2       -0.00317   0.00483   0.00010   0.00031  -0.00223
  70 4   C  1S         -0.05761   0.30107  -0.19974   0.31330  -0.01432
  71        2S          0.13063   0.00472   0.00906  -0.06798   0.09934
  72        3S          0.11977  -0.16961   0.09518  -0.11560   0.10146
  73        4S         -0.08195   0.02202   0.07055  -0.04967   0.01701
  74        5PX        -0.12229   0.03083  -0.00466  -0.05700  -0.05033
  75        5PY        -0.11574  -0.04623  -0.02706   0.04697  -0.07618
  76        5PZ        -0.02219   0.04672   0.09571  -0.00569  -0.01785
  77        6PX        -0.20658   0.08678  -0.02503  -0.03732  -0.08430
  78        6PY        -0.18842  -0.06120   0.02108  -0.00140  -0.05937
  79        6PZ        -0.01119   0.02606   0.05136  -0.00150  -0.00910
  80        7PX         0.06236  -0.02330  -0.01644   0.07854  -0.03570
  81        7PY        -0.03206  -0.00744   0.00924   0.08155  -0.03935
  82        7PZ        -0.00097   0.00262   0.00242   0.00090  -0.00020
  83        8D 0        0.00244   0.00075   0.00028  -0.00257   0.00097
  84        8D+1        0.00256   0.00366   0.01022  -0.00021  -0.00014
  85        8D-1       -0.00061   0.00641   0.01508  -0.00108  -0.00176
  86        8D+2        0.01572   0.00062   0.00170   0.00030   0.00627
  87        8D-2       -0.00970   0.00083   0.00408  -0.00342   0.00279
  88        9D 0       -0.00248   0.00094  -0.00078   0.00409  -0.00160
  89        9D+1       -0.00015  -0.00038   0.00106  -0.00075  -0.00043
  90        9D-1       -0.00052   0.00137   0.00215  -0.00002  -0.00030
  91        9D+2        0.04367   0.00201   0.00209   0.01077   0.02503
  92        9D-2       -0.01092   0.01407  -0.01128  -0.00221  -0.01922
  93 5   C  1S          0.02407  -0.10877   0.01257   0.44281   0.44542
  94        2S          0.02902   0.03039  -0.00385   0.04283   0.06016
  95        3S          0.06883   0.04773  -0.03839   0.11312  -0.10554
  96        4S          0.55055   0.00239  -0.18995  -0.31650   0.00273
  97        5PX         0.19393  -0.06567   0.01625   0.01633   0.06136
  98        5PY         0.14219   0.00387  -0.09231   0.00765  -0.14757
  99        5PZ        -0.04594  -0.04577  -0.13034  -0.00268  -0.00330
 100        6PX        -0.12433   0.07004  -0.03817  -0.09807  -0.02799
 101        6PY         0.01223  -0.02159   0.01296   0.09067  -0.02212
 102        6PZ        -0.02723  -0.02735  -0.07743  -0.00042  -0.00219
 103        7PX         0.06371  -0.00753  -0.00758   0.14027  -0.02560
 104        7PY         0.08535   0.02562  -0.02930  -0.14947   0.04589
 105        7PZ        -0.00341  -0.00341  -0.00757  -0.00049  -0.00085
 106        8D 0       -0.00232  -0.00049   0.00085   0.00213  -0.00160
 107        8D+1       -0.00011   0.00524   0.01194  -0.00013  -0.00130
 108        8D-1       -0.00169  -0.00464  -0.01167  -0.00032   0.00068
 109        8D+2        0.01357   0.00201   0.00181  -0.00783   0.01451
 110        8D-2       -0.02124  -0.00668   0.00456   0.01106  -0.00393
 111        9D 0        0.00290   0.00032   0.00273   0.00680   0.00789
 112        9D+1       -0.00001   0.00077   0.00049   0.00038   0.00007
 113        9D-1       -0.00073  -0.00207  -0.00811   0.00110   0.00101
 114        9D+2       -0.08906   0.03762  -0.01076  -0.01069  -0.02533
 115        9D-2        0.03859   0.00418  -0.03780  -0.04405  -0.04051
 116 6   C  1S         -0.00028   0.06871  -0.02404   0.06461   0.02832
 117        2S          0.11414   0.01724  -0.07623  -0.15613  -0.02191
 118        3S          0.18057  -0.04668  -0.15023  -0.20460  -0.17596
 119        4S         -0.75561  -0.06241   0.21467   0.50657  -0.24672
 120        5PX        -0.08630  -0.06835  -0.01787   0.21043  -0.24717
 121        5PY        -0.05701  -0.11610   0.03831  -0.00997  -0.02038
 122        5PZ        -0.03661  -0.11114  -0.27681  -0.00573   0.01755
 123        6PX         0.12640   0.01620  -0.04536  -0.11361   0.02345
 124        6PY         0.19872  -0.08679   0.01244   0.05078   0.02699
 125        6PZ        -0.02078  -0.06394  -0.15528  -0.00320   0.00902
 126        7PX        -0.10310   0.00338   0.03602   0.02726  -0.00287
 127        7PY        -0.07384  -0.00623   0.00334  -0.13641  -0.01072
 128        7PZ        -0.00274  -0.00788  -0.02009   0.00015   0.00108
 129        8D 0       -0.00107  -0.00144   0.00093   0.00269  -0.00034
 130        8D+1       -0.00126  -0.00276  -0.00717  -0.00039   0.00041
 131        8D-1        0.00201  -0.00189  -0.00371  -0.00037   0.00136
 132        8D+2        0.02247   0.00351  -0.00116  -0.00148   0.01054
 133        8D-2       -0.00437  -0.00122   0.00305   0.00437  -0.00059
 134        9D 0       -0.00076  -0.00129  -0.00457  -0.00521  -0.00673
 135        9D+1        0.00053   0.00124   0.00305  -0.00045  -0.00002
 136        9D-1        0.00048  -0.00082  -0.00144  -0.00023   0.00042
 137        9D+2       -0.08230  -0.01695   0.01910   0.10684  -0.06514
 138        9D-2        0.07290  -0.00205  -0.00807   0.02284   0.00314
 139 7   C  1S         -0.01136  -0.15133   0.08656  -0.13522  -0.06948
 140        2S         -0.04691   0.01837   0.02029   0.00194  -0.02486
 141        3S          0.00446   0.05457   0.02424   0.17776  -0.06969
 142        4S          0.61096  -0.00381  -0.19759  -0.03268   0.11051
 143        5PX         0.13071   0.13110   0.01774   0.18370   0.04990
 144        5PY        -0.04873   0.08066   0.01439  -0.07504   0.11569
 145        5PZ         0.00140  -0.08223  -0.19749  -0.01116   0.02648
 146        6PX         0.25512   0.00795  -0.02142  -0.04174   0.02778
 147        6PY         0.24225   0.00017  -0.02729  -0.04248   0.06847
 148        6PZ         0.00165  -0.04897  -0.11440  -0.00640   0.01522
 149        7PX        -0.01169   0.00130  -0.01823  -0.04226  -0.01099
 150        7PY        -0.16555  -0.01242   0.04056   0.03040  -0.04432
 151        7PZ         0.00088  -0.00849  -0.01827  -0.00055   0.00229
 152        8D 0       -0.00188  -0.00150   0.00127   0.00133  -0.00015
 153        8D+1        0.00199   0.00377   0.00910  -0.00070   0.00007
 154        8D-1        0.00174   0.00484   0.01216   0.00027  -0.00072
 155        8D+2        0.00783   0.00768   0.00309   0.00435   0.01377
 156        8D-2        0.00878  -0.00422  -0.00285  -0.00465   0.00183
 157        9D 0       -0.00049  -0.00174   0.00407   0.00109   0.00213
 158        9D+1        0.00045   0.00157   0.00412  -0.00037  -0.00017
 159        9D-1        0.00086   0.00139   0.00536  -0.00063  -0.00051
 160        9D+2        0.04797  -0.04101  -0.01277  -0.03426  -0.02073
 161        9D-2       -0.07398   0.02738   0.01713  -0.00655   0.01730
 162 8   C  1S         -0.01797   0.00816   0.03916  -0.13799  -0.19925
 163        2S          0.05059   0.07696  -0.01004   0.09135   0.05639
 164        3S          0.07026   0.23633   0.01075   0.27964   0.22377
 165        4S         -0.48940   0.12074   0.16174  -0.10893  -0.05449
 166        5PX        -0.06309  -0.10962  -0.03704  -0.11067  -0.01740
 167        5PY         0.00137  -0.02737  -0.03821   0.00542  -0.01878
 168        5PZ         0.02331   0.02479   0.05786  -0.01561   0.00882
 169        6PX         0.18457  -0.02564  -0.02658   0.04544   0.00190
 170        6PY        -0.17019  -0.05771   0.02300  -0.09208  -0.11632
 171        6PZ         0.01577   0.01465   0.03055  -0.00623   0.00669
 172        7PX        -0.05826  -0.02396  -0.00396  -0.03604  -0.01497
 173        7PY         0.13362  -0.00799  -0.02342   0.02941   0.02500
 174        7PZ         0.00394   0.00123   0.00197  -0.00030   0.00204
 175        8D 0        0.00038   0.00039  -0.00012  -0.00266   0.00019
 176        8D+1        0.00018   0.00755   0.01834   0.00004  -0.00211
 177        8D-1       -0.00013  -0.00506  -0.01247   0.00104   0.00122
 178        8D+2        0.00398   0.00821   0.00106   0.00420   0.00001
 179        8D-2        0.00087  -0.00534  -0.00255   0.00458  -0.00685
 180        9D 0        0.00804   0.00632  -0.00033   0.00442   0.00381
 181        9D+1        0.00031   0.00467   0.01491  -0.00178  -0.00191
 182        9D-1        0.00012  -0.00087   0.00067  -0.00110  -0.00028
 183        9D+2       -0.10638  -0.03768   0.00029  -0.03200  -0.02607
 184        9D-2       -0.05613   0.00756   0.02107  -0.05367  -0.00361
 185 9   H  1S         -0.20216   0.02798   0.05679   0.02326   0.07807
 186        2S         -0.40024   0.00702   0.09382   0.12039   0.03221
 187        3S          0.00431   0.00423  -0.00405  -0.01801   0.00407
 188        4PX         0.00050   0.00067   0.00201  -0.00065   0.00535
 189        4PY        -0.00539   0.00338   0.00103  -0.00081   0.00309
 190        4PZ        -0.00158  -0.00157  -0.00459  -0.00003  -0.00009
 191        5PX        -0.04834   0.00839   0.00188   0.00244  -0.00650
 192        5PY        -0.07031  -0.00685   0.01949   0.02676   0.00296
 193        5PZ        -0.00123  -0.00155  -0.00606   0.00074   0.00038
 194 10  H  1S          0.16647   0.07223  -0.02815  -0.24953   0.20117
 195        2S          0.38839   0.10272  -0.05329  -0.35994   0.31450
 196        3S         -0.02000   0.00530   0.01131   0.00883   0.01238
 197        4PX         0.00762   0.00308  -0.00321  -0.01493   0.00644
 198        4PY        -0.00108  -0.00231   0.00062  -0.00012  -0.00002
 199        4PZ        -0.00129  -0.00393  -0.00974  -0.00015   0.00059
 200        5PX         0.08845   0.02185  -0.00912  -0.06716   0.06601
 201        5PY         0.01381   0.00883  -0.00361   0.00659   0.00371
 202        5PZ        -0.00089  -0.00287  -0.00713   0.00010   0.00045
 203 11  H  1S         -0.12453   0.01288   0.00995  -0.12527   0.03438
 204        2S         -0.24440   0.00872   0.03634  -0.12411  -0.01777
 205        3S          0.03166   0.00492  -0.01407  -0.02032   0.00947
 206        4PX        -0.00097   0.00351   0.00090  -0.00081   0.00322
 207        4PY         0.00593   0.00080  -0.00046   0.00591  -0.00039
 208        4PZ         0.00009  -0.00305  -0.00738  -0.00034   0.00100
 209        5PX        -0.02316  -0.01526   0.00114  -0.02405  -0.01251
 210        5PY         0.05065  -0.00943  -0.00864   0.01007   0.00507
 211        5PZ         0.00025  -0.00290  -0.00775   0.00019   0.00116
 212 12  H  1S         -0.00881  -0.03611  -0.05343   0.02613  -0.00445
 213        2S          0.02083  -0.09723  -0.07448   0.05880  -0.00534
 214        3S         -0.04168   0.00335   0.00545  -0.00576  -0.00235
 215        4PX        -0.00145  -0.00372   0.00130  -0.00347  -0.00142
 216        4PY        -0.00115  -0.00067   0.00217  -0.00177  -0.00238
 217        4PZ         0.00090   0.00086   0.00206  -0.00054   0.00034
 218        5PX         0.02015   0.01993   0.00556   0.00740   0.00530
 219        5PY        -0.01866   0.01588   0.01237  -0.01138  -0.00268
 220        5PZ         0.00107  -0.00021  -0.00206   0.00059   0.00094
                          11        12        13        14        15
     Eigenvalues --     2.00000   2.00000   2.00000   2.00000   2.00000
   1 1   C  1S          0.41882   0.46130  -0.26548  -0.10359   0.12700
   2        2S          0.07793  -0.06611  -0.10820   0.04056  -0.11604
   3        3S          0.11504  -0.15882  -0.10731   0.03895  -0.11803
   4        4S         -0.49911   0.23858   0.15283   0.04754  -0.04139
   5        5PX        -0.00486  -0.02319   0.04915  -0.05899   0.11115
   6        5PY        -0.05308   0.02691   0.00950   0.02550   0.08364
   7        5PZ         0.06553   0.05463   0.05631   0.06488   0.01095
   8        6PX        -0.10209   0.08384   0.01269  -0.03454  -0.02654
   9        6PY         0.22559  -0.16602  -0.10093  -0.01868  -0.15789
  10        6PZ         0.03843   0.02521   0.04287   0.01119  -0.01297
  11        7PX         0.03664  -0.04656   0.02197  -0.01913   0.06590
  12        7PY        -0.20353   0.11967   0.04199  -0.01424   0.03368
  13        7PZ         0.00680   0.00379   0.00877  -0.00048  -0.00349
  14        8D 0       -0.00034   0.00423   0.00323   0.00100   0.00034
  15        8D+1        0.00005   0.00351  -0.00575   0.01447   0.01008
  16        8D-1        0.00011   0.00065  -0.00195   0.00313   0.00098
  17        8D+2        0.00410  -0.01793  -0.00787  -0.01443   0.01593
  18        8D-2        0.01148   0.00494  -0.00519  -0.00078  -0.00245
  19        9D 0        0.01651   0.00055  -0.00671  -0.00420   0.00378
  20        9D+1        0.00047  -0.00464   0.00740  -0.01905  -0.01415
  21        9D-1        0.00011   0.00044  -0.00110   0.00206   0.00069
  22        9D+2       -0.01636   0.02715  -0.02885   0.02598  -0.06214
  23        9D-2       -0.07739   0.00725   0.03432   0.02945   0.03396
  24 2   N  1S         -0.07164   0.26584  -0.08198  -0.12406  -0.09091
  25        2S          0.07827  -0.12212  -0.00873  -0.05996   0.10824
  26        3S          0.04614  -0.11856  -0.03502  -0.12441   0.17543
  27        4S          0.07959  -0.07208  -0.12935  -0.05358  -0.02519
  28        5PX         0.02810   0.05237   0.05689   0.05460  -0.01481
  29        5PY         0.17045   0.13201  -0.06529  -0.07606   0.08807
  30        5PZ        -0.02113   0.06513  -0.14704   0.31281   0.23231
  31        6PX        -0.07024   0.07898  -0.00937  -0.01206  -0.03624
  32        6PY         0.10654   0.06385  -0.04207  -0.05066   0.05019
  33        6PZ        -0.00660   0.03740  -0.07253   0.16637   0.12103
  34        7PX        -0.02822   0.03450  -0.04992  -0.03545  -0.01863
  35        7PY         0.01935  -0.00730  -0.01364  -0.01944   0.00244
  36        7PZ         0.00239   0.00529  -0.00315   0.01554   0.00953
  37        8D 0       -0.00328   0.00495  -0.00117  -0.00142  -0.00007
  38        8D+1       -0.00735  -0.00068  -0.01461   0.01455   0.01429
  39        8D-1        0.00018  -0.00003   0.00034  -0.00052  -0.00053
  40        8D+2        0.00628  -0.00914  -0.00015   0.00126   0.00025
  41        8D-2        0.01135   0.00937  -0.00305  -0.00603   0.00185
  42        9D 0        0.00383  -0.00251   0.00344  -0.00466   0.01361
  43        9D+1       -0.00727  -0.00575  -0.00702  -0.00568  -0.00023
  44        9D-1        0.00001   0.00049  -0.00092   0.00208   0.00132
  45        9D+2       -0.00901  -0.00408  -0.00454   0.00481  -0.01503
  46        9D-2        0.01484  -0.00609  -0.00289  -0.00277  -0.00972
  47 3   N  1S          0.10766   0.08471   0.18371  -0.02555   0.10557
  48        2S          0.09782  -0.18656   0.05910   0.06330  -0.00516
  49        3S          0.15121  -0.23481   0.07336   0.10998  -0.02000
  50        4S          0.02469  -0.03168   0.10978   0.08185   0.00616
  51        5PX        -0.01090  -0.06102  -0.02030   0.01350  -0.05202
  52        5PY         0.16061   0.13123  -0.04064  -0.07668   0.06786
  53        5PZ        -0.07525   0.02013  -0.19084   0.25680   0.22255
  54        6PX        -0.02852  -0.02082  -0.01782  -0.01864  -0.01217
  55        6PY         0.06657   0.07260  -0.01100  -0.03177   0.03672
  56        6PZ        -0.04266   0.00633  -0.09954   0.12422   0.11124
  57        7PX        -0.00010  -0.00614  -0.01756  -0.01173   0.00010
  58        7PY         0.00330   0.00591   0.00610   0.00303   0.00142
  59        7PZ        -0.00947  -0.00465  -0.01277   0.00324   0.00752
  60        8D 0       -0.00200   0.00007  -0.00129   0.00030  -0.00282
  61        8D+1        0.00348  -0.00407   0.01373  -0.02454  -0.01921
  62        8D-1       -0.00020   0.00018  -0.00069   0.00122   0.00094
  63        8D+2        0.00188  -0.00107   0.00228  -0.00035   0.00427
  64        8D-2       -0.01423  -0.01109   0.00437   0.00639  -0.00743
  65        9D 0       -0.00355   0.00396  -0.00057  -0.00189  -0.00039
  66        9D+1        0.00011  -0.00161   0.00253  -0.00648  -0.00467
  67        9D-1       -0.00029   0.00008  -0.00075   0.00101   0.00085
  68        9D+2        0.00571  -0.00653   0.00016   0.00492  -0.00336
  69        9D-2        0.00124  -0.00536  -0.00121  -0.00097  -0.00313
  70 4   C  1S          0.12557   0.12699   0.10875   0.33561  -0.04705
  71        2S          0.05167  -0.02477  -0.06165   0.05426  -0.14154
  72        3S          0.13495  -0.05799  -0.25355  -0.03074  -0.26974
  73        4S          0.16640  -0.02198  -0.00889  -0.05629   0.11626
  74        5PX         0.04093   0.06493   0.09944   0.01278   0.00530
  75        5PY         0.04878  -0.06814  -0.07143   0.01871  -0.09971
  76        5PZ         0.02294   0.01225   0.04472  -0.01584  -0.01122
  77        6PX         0.07964   0.00797   0.08670   0.04226  -0.04583
  78        6PY         0.05514  -0.03808  -0.12235  -0.05635  -0.13293
  79        6PZ         0.01283   0.00554   0.02618  -0.01331  -0.00994
  80        7PX        -0.09932   0.07378   0.01226  -0.01057  -0.01549
  81        7PY        -0.02315   0.02874  -0.03143  -0.04543   0.00975
  82        7PZ         0.00140  -0.00049   0.00446  -0.00584  -0.00419
  83        8D 0        0.00062   0.00392   0.00536   0.00106   0.00445
[...]
   D12       -0.00004   0.00000   0.00000   0.00004   0.00004   0.00000
   D13       -0.00001  -0.00000   0.00000   0.00001   0.00001   0.00000
   D14        3.14146   0.00000   0.00000   0.00013   0.00013  -3.14159
   D15        3.14156   0.00000   0.00000   0.00004   0.00004   3.14159
   D16       -0.00016   0.00000   0.00000   0.00016   0.00016   0.00000
   D17       -0.00009   0.00000   0.00000   0.00009   0.00009   0.00000
   D18        3.14142   0.00000   0.00000   0.00017   0.00017  -3.14159
   D19       -3.14156  -0.00000   0.00000  -0.00004  -0.00004   3.14159
   D20       -0.00005   0.00000   0.00000   0.00005   0.00005   0.00000
         Item               Value     Threshold  Converged?
 Maximum Force            0.000089     0.000450     YES
 RMS     Force            0.000020     0.000300     YES
 Maximum Displacement     0.001826     0.001800     NO 
 RMS     Displacement     0.000331     0.001200     YES
 Predicted change in Energy=-7.950295D-08
                           ----------------------------
                           ! Non-Optimized Parameters !
                           ! (Angstroms and Degrees)  !
 --------------------------                            --------------------------
 ! Name  Definition              Value          Derivative Info.                !
 --------------------------------------------------------------------------------
 ! R1    R(1,2)                  1.3958         -DE/DX =    0.0                 !
 ! R2    R(1,4)                  1.4076         -DE/DX =    0.0                 !
 ! R3    R(1,8)                  1.4234         -DE/DX =    0.0                 !
 ! R4    R(2,3)                  1.1176         -DE/DX =    0.0                 !
 ! R5    R(4,5)                  1.4274         -DE/DX =    0.0                 !
 ! R6    R(5,6)                  1.3938         -DE/DX =    0.0                 !
 ! R7    R(5,9)                  1.0945         -DE/DX =    0.0                 !
 ! R8    R(6,7)                  1.419          -DE/DX =    0.0                 !
 ! R9    R(6,10)                 1.0933         -DE/DX =    0.0001              !
 ! R10   R(7,8)                  1.3792         -DE/DX =    0.0                 !
 ! R11   R(7,11)                 1.0895         -DE/DX =    0.0                 !
 ! R12   R(8,12)                 1.0909         -DE/DX =    0.0                 !
 ! A1    A(2,1,4)              112.5113         -DE/DX =    0.0                 !
 ! A2    A(2,1,8)              116.5209         -DE/DX =    0.0                 !
 ! A3    A(4,1,8)              130.9679         -DE/DX =    0.0                 !
 ! A4    A(1,4,5)              109.2224         -DE/DX =    0.0                 !
 ! A5    A(4,5,6)              123.8576         -DE/DX =    0.0                 !
 ! A6    A(4,5,9)              118.5065         -DE/DX =    0.0                 !
 ! A7    A(6,5,9)              117.6359         -DE/DX =    0.0                 !
 ! A8    A(5,6,7)              121.7791         -DE/DX =    0.0                 !
 ! A9    A(5,6,10)             119.8504         -DE/DX =    0.0                 !
 ! A10   A(7,6,10)             118.3705         -DE/DX =    0.0                 !
 ! A11   A(6,7,8)              119.108          -DE/DX =    0.0                 !
 ! A12   A(6,7,11)             120.4844         -DE/DX =    0.0                 !
 ! A13   A(8,7,11)             120.4076         -DE/DX =    0.0                 !
 ! A14   A(1,8,7)              115.0651         -DE/DX =    0.0                 !
 ! A15   A(1,8,12)             122.5239         -DE/DX =    0.0                 !
 ! A16   A(7,8,12)             122.411          -DE/DX =    0.0                 !
 ! A17   L(1,2,3,12,-1)        183.5497         -DE/DX =    0.0001              !
 ! A18   L(1,2,3,12,-2)        180.0            -DE/DX =    0.0                 !
 ! D1    D(2,1,4,5)           -180.0            -DE/DX =    0.0                 !
 ! D2    D(8,1,4,5)              0.0            -DE/DX =    0.0                 !
 ! D3    D(2,1,8,7)           -180.0            -DE/DX =    0.0                 !
 ! D4    D(2,1,8,12)             0.0            -DE/DX =    0.0                 !
 ! D5    D(4,1,8,7)              0.0            -DE/DX =    0.0                 !
 ! D6    D(4,1,8,12)           180.0            -DE/DX =    0.0                 !
 ! D7    D(1,4,5,6)              0.0            -DE/DX =    0.0                 !
 ! D8    D(1,4,5,9)            180.0            -DE/DX =    0.0                 !
 ! D9    D(4,5,6,7)              0.0            -DE/DX =    0.0                 !
 ! D10   D(4,5,6,10)          -180.0            -DE/DX =    0.0                 !
 ! D11   D(9,5,6,7)            180.0            -DE/DX =    0.0                 !
 ! D12   D(9,5,6,10)             0.0            -DE/DX =    0.0                 !
 ! D13   D(5,6,7,8)              0.0            -DE/DX =    0.0                 !
 ! D14   D(5,6,7,11)          -180.0            -DE/DX =    0.0                 !
 ! D15   D(10,6,7,8)           180.0            -DE/DX =    0.0                 !
 ! D16   D(10,6,7,11)            0.0            -DE/DX =    0.0                 !
 ! D17   D(6,7,8,1)              0.0            -DE/DX =    0.0                 !
 ! D18   D(6,7,8,12)          -180.0            -DE/DX =    0.0                 !
 ! D19   D(11,7,8,1)           180.0            -DE/DX =    0.0                 !
 ! D20   D(11,7,8,12)            0.0            -DE/DX =    0.0                 !
 --------------------------------------------------------------------------------
 GradGradGradGradGradGradGradGradGradGradGradGradGradGradGradGradGradGrad

 Leave Link  103 at Sat Nov  5 15:57:26 2016, MaxMem=   524288000 cpu:               0.1 elap:               0.0
 (Enter /home/ubuntu/g16/l9999.exe)

 ----------------------------------------------------------------------

 Electric dipole moment (input orientation):
 (Debye = 10**-18 statcoulomb cm , SI units = C m)
                  (au)            (Debye)         (10**-30 SI)
   Tot        0.148993D+01      0.378702D+01      0.126322D+02
   x          0.101233D+00      0.257309D+00      0.858291D+00
   y         -0.148648D+01     -0.377827D+01     -0.126029D+02
   z          0.244385D-02      0.621163D-02      0.207198D-01

 Dipole polarizability, Alpha (input orientation).
 (esu units = cm**3 , SI units = C**2 m**2 J**-1)
 Alpha(0;0):
               (au)            (10**-24 esu)      (10**-40 SI)
   iso        0.945183D+02      0.140062D+02      0.155840D+02
   aniso      0.744179D+02      0.110276D+02      0.122698D+02
   xx         0.137654D+03      0.203982D+02      0.226961D+02
   yx         0.374883D+01      0.555519D+00      0.618099D+00
   yy         0.936409D+02      0.138762D+02      0.154393D+02
   zx         0.288169D+01      0.427022D+00      0.475127D+00
   zy         0.150477D+00      0.222984D-01      0.248103D-01
   zz         0.522598D+02      0.774410D+01      0.861648D+01

 ----------------------------------------------------------------------

 Dipole orientation:
     6         -2.30812108         -0.26881604          0.58697067
     7         -4.93073064         -0.53617170          0.66588884
     7         -7.03082749         -0.75062992          0.60055448
     6         -1.36822593         -0.17303174         -1.89970786
     6          1.31441247          0.10030321         -1.82517544
     6          2.71378174          0.24328213          0.40167426
     6          1.54670469          0.12443287          2.81302715
     6         -1.04206689         -0.13965627          2.95686740
     1          2.34607220          0.20551127         -3.61476246
     1          4.76713525          0.45282176          0.31464738
     1          2.67939953          0.23992014          4.52848755
     1         -2.04378049         -0.24198970          4.75576898

 Electric dipole moment (dipole orientation):
 (Debye = 10**-18 statcoulomb cm , SI units = C m)
                  (au)            (Debye)         (10**-30 SI)
   Tot        0.148993D+01      0.378702D+01      0.126322D+02
   x          0.000000D+00      0.000000D+00      0.000000D+00
   y          0.000000D+00      0.000000D+00      0.000000D+00
   z          0.148993D+01      0.378702D+01      0.126322D+02

 Dipole polarizability, Alpha (dipole orientation).
 (esu units = cm**3 , SI units = C**2 m**2 J**-1)
 Alpha(0;0):
               (au)            (10**-24 esu)      (10**-40 SI)
   iso        0.945183D+02      0.140062D+02      0.155840D+02
   aniso      0.744179D+02      0.110276D+02      0.122698D+02
   xx         0.137172D+03      0.203268D+02      0.226166D+02
   yx         0.866920D+01      0.128464D+01      0.142936D+01
   yy         0.530467D+02      0.786071D+01      0.874622D+01
   zx        -0.722762D+00     -0.107102D+00     -0.119167D+00
   zy        -0.709797D-01     -0.105181D-01     -0.117030D-01
   zz         0.933359D+02      0.138310D+02      0.153890D+02

 ----------------------------------------------------------------------
 1\1\GINC-LC06-2-2\Freq\UB3LYP\Aug-CC-pVDZ\C6H4N2\UBUNTU\05-Nov-2016\0\
 \#P Geom=AllCheck Guess=TCheck SCRF=Check GenChk UB3LYP/Aug-CC-pVDZ Fr
 eq\\C6H4N2_UB3LYP-aug-cc-pVDZ\\0,1\C,-1.2042982944,-0.3934431196,-0.05
 8424562\N,-2.5924644034,-0.5299160567,-0.1052116807\N,-3.7086952428,-0
 .5713426407,-0.1429835185\C,-0.7951976157,0.9533850504,-0.0438071555\C
 ,0.630319417,1.0110127847,0.004111607\C,1.452607503,-0.1140720254,0.03
 12164617\C,0.9203070741,-1.4293441038,0.0125247549\C,-0.4475840201,-1.
 5988702456,-0.0336980821\H,1.113157392,1.9931265099,0.0210099915\H,2.5
 385625554,0.006103936,0.067939924\H,1.5827560031,-2.2940804285,0.03425
 96804\H,-0.9142103681,-2.5848196607,-0.0501474205\\Version=ES64L-G16Re
 vA.03\State=1-A\HF=-340.4407965\S2=0.\S2-1=0.\S2A=0.\RMSD=2.157e-09\RM
 SF=2.986e-05\ZeroPoint=0.0840034\Thermal=0.0903027\Dipole=0.1012333,-1
 .4864846,0.0024438\DipoleDeriv=-0.8993421,0.1473664,-0.0333309,-0.2399
 883,0.2207061,-0.0080409,-0.03367,0.0048945,0.0935063,2.3463021,0.2534
 328,0.075358,0.2661651,0.1459233,0.0090109,0.0755776,0.008729,0.112517
 2,-1.3639673,-0.3032786,-0.0469062,-0.0928195,0.0184035,-0.0031326,-0.
 0470538,-0.0103152,0.0249102,-0.1485377,-0.358798,0.0092424,0.2977058,
 -0.5207961,0.0100174,0.0098366,-0.0119951,-0.4314885,-0.0745793,0.4996
 936,-0.0006406,0.2924924,0.1333668,0.0099194,-0.0008521,0.0168688,-0.0
 467919,0.1924009,0.0214719,0.0077006,0.2015648,0.2811954,0.006983,0.00
 78365,0.0009607,-0.0345935,-0.3924213,-0.245274,-0.007956,-0.3102984,-
 0.0986617,-0.0104188,-0.0080493,-0.0082011,-0.160983,0.4780095,0.07452
 46,0.0175204,-0.3262152,-0.0720441,-0.0109779,0.0173954,0.0025813,-0.0
 397928,-0.0413526,-0.0815802,-0.0047585,-0.1238779,-0.0701273,-0.00426
 42,-0.0047972,-0.0029346,0.0984865,-0.1475864,-0.0142541,-0.0081525,-0
 .0049653,0.069054,-0.0001901,-0.0081475,-0.0004531,0.0938706,0.0180878
 ,0.0656365,-0.0038636,0.066922,-0.0261431,0.0021541,-0.0038645,0.00206
 99,0.1338288,0.0329865,-0.058941,-0.004213,-0.0266855,-0.0808767,-0.00
 10604,-0.0042116,-0.0022052,0.1565301\Polar=137.6541433,3.7488308,93.6
 409479,2.8816902,0.150477,52.2597972\Quadrupole=4.143583,-2.262669,-1.
 8809141,2.3136884,0.2046398,0.0776748\PG=C01 [X(C6H4N2)]\NImag=0\\0.38
 727625,-0.07983968,0.58600763,0.00933126,-0.00237506,0.10907054,-0.070
 83552,0.06170553,-0.00096207,1.51243699,0.01833090,-0.07409904,0.00058
 960,0.03460220,0.12757698,-0.00099774,0.00203969,-0.04119108,0.0479246
 5,0.00119677,0.09692932,-0.06730040,-0.01165534,-0.00269777,-1.3147173
 0,-0.04223513,-0.04299729,1.36863536,-0.01785893,0.01784096,-0.0005972
 3,-0.03690659,-0.04159824,-0.00124718,0.05177275,0.02237661,-0.0026850
 0,-0.00038165,0.01216296,-0.04301285,-0.00142984,-0.04499311,0.0455272
 3,0.00174916,0.02433605,-0.06975401,-0.05547697,-0.00112337,-0.0547998
 5,-0.03563124,-0.00112768,0.00651706,0.00360587,-0.00007792,0.43536583
 ,0.03600894,-0.24508162,0.00107133,-0.08271103,-0.00644769,-0.00275758
 ,0.00718703,0.00354690,0.00023117,0.07316041,0.34132368,-0.00106358,-0
 .00200216,-0.03724180,-0.00115410,-0.00118527,-0.02228330,-0.00007302,
 0.00011793,0.00903056,0.01267473,0.00264092,0.05978303,-0.01147601,-0.
 03591070,-0.00015991,-0.00750860,-0.01087756,-0.00097103,0.00188562,0.
 00167073,0.00029050,-0.27513932,-0.02362529,-0.00775741,0.59040358,-0.
 05625174,-0.00871526,-0.00189010,-0.00489454,-0.00971519,-0.00018881,0
 .00656472,0.00142350,0.00022859,-0.01234320,-0.07011079,-0.00043420,0.
 03018796,0.69135388,-0.00018256,-0.00121063,-0.00734727,-0.00095966,-0
 .00038696,0.02112573,0.00028559,0.00006059,-0.00670883,-0.00774577,-0.
 00081260,-0.04482322,0.01552238,0.00134933,0.13057553,-0.00504361,0.00
 308979,0.00016081,0.00158076,0.00113285,0.00016023,-0.00053230,0.00006
 245,-0.00005695,-0.03466643,0.01616404,-0.00170876,-0.19738368,0.13584
 647,-0.00437046,0.71229853,0.02873988,-0.03508993,0.00095226,-0.018219
 89,-0.00801518,-0.00061626,0.00828154,0.00262297,0.00028002,0.04869783
 ,0.02739515,0.00164464,0.06561976,-0.27140489,0.00210142,-0.00760023,0
 .64179763,0.00017865,0.00008987,-0.00973759,0.00014810,0.00003498,-0.0
 0318419,-0.00005118,0.00000324,0.00116758,-0.00168959,0.00055145,0.016
 31756,-0.00441416,0.00446869,-0.06574937,0.01918648,0.00002589,0.14411
 856,-0.06364380,0.04730367,-0.00246375,0.02404648,0.00806249,0.0005488
 5,-0.01207769,-0.00237310,-0.00034038,-0.02850783,-0.02094883,-0.00067
 947,0.05946467,-0.00920923,0.00170399,-0.14648822,-0.02726156,-0.00271
 578,0.72423492,0.00384959,0.02339865,0.00013798,0.02787152,-0.00451608
 ,0.00092914,-0.00932094,0.00055180,-0.00031208,-0.01971545,-0.00973404
 ,-0.00066219,0.03016726,-0.05216740,0.00097936,-0.09082702,-0.27258514
 ,-0.00317991,-0.05374791,0.67239945,-0.00248503,0.00160325,0.01018611,
 0.00056012,0.00026320,0.00793915,-0.00034313,-0.00007794,-0.00205189,-
 0.00068653,-0.00070741,-0.00858830,0.00173298,-0.00034432,0.00868286,-
 0.00275561,-0.00104161,-0.06637080,0.02001831,-0.00146686,0.12968823,-
 0.10100739,0.06018916,-0.00156804,-0.09059578,0.02733025,-0.00256266,0
 .01854224,-0.00046309,0.00037280,0.04197405,0.01086767,0.00072496,-0.0
 4722568,0.02560320,-0.00133518,-0.01646996,-0.07601251,-0.00085982,-0.
 38112874,-0.00124648,-0.01073592,0.69772637,0.08084741,-0.25147478,0.0
 0259638,0.02344353,0.01550888,0.00080849,-0.01318932,-0.00608938,-0.00
 045308,-0.00769723,-0.03863147,-0.00029428,0.02180218,-0.01066596,0.00
 073307,-0.03553972,0.01332620,-0.00119356,-0.05631590,-0.12172792,-0.0
 0193871,0.06900205,0.68511235,-0.00155938,0.00189505,-0.05327736,-0.00
 256327,0.00093979,-0.01407160,0.00036541,-0.00002452,0.00749593,0.0007
 2146,0.00033058,0.02051294,-0.00134155,0.00086178,-0.00708733,-0.00083
 547,-0.00255631,0.00762653,-0.01077217,-0.00008357,-0.06305227,0.01934
 483,0.00270993,0.12598832,-0.00630370,-0.00482309,-0.00047244,0.000246
 46,-0.00214729,-0.00005567,-0.00012543,0.00053119,0.00001512,-0.016935
 77,-0.02136194,-0.00057897,-0.09836609,-0.10631959,-0.00197897,0.00894
 926,0.01883493,0.00011287,-0.00125522,0.00318427,-0.00032597,-0.001007
 47,0.00056972,-0.00000330,0.11334669,0.00033185,0.00157484,0.00000746,
 0.00042024,0.00081292,0.00001351,-0.00024006,-0.00029458,-0.00000793,-
 0.00305784,0.00387562,-0.00010045,-0.09976323,-0.27553222,-0.00350919,
 -0.01288864,-0.02151599,-0.00045142,0.00432733,-0.00202664,0.00013967,
 0.00045967,0.00056563,0.00001627,0.11098771,0.29277718,-0.00047119,-0.
 00016474,0.00765257,-0.00005291,-0.00007271,0.00185163,0.00001401,0.00
 001783,-0.00056226,-0.00056233,-0.00071660,-0.00013727,-0.00198055,-0.
 00373442,-0.04168751,0.00009559,0.00062001,0.00592858,-0.00032668,0.00
 010205,0.00845189,-0.00000293,0.00001850,-0.00090251,0.00303013,0.0039
 0767,0.02556164,0.00159582,0.00117267,-0.00004020,-0.00010692,0.000255
 62,0.00015690,-0.00019304,0.00001125,-0.00005774,-0.00240594,0.0029318
 3,-0.00020739,-0.01344709,-0.00647024,-0.00077058,-0.32719897,-0.03082
 061,-0.00962962,-0.00765522,0.00197628,-0.00041842,0.00126418,-0.00225
 615,-0.00017005,0.00090674,0.00009628,0.00015377,0.34677922,-0.0004756
 3,-0.00195392,-0.00001827,-0.00015324,0.00002812,-0.00000297,0.0005809
 9,-0.00012875,0.00001886,0.00421919,-0.00214847,0.00013823,0.02487184,
 0.00773795,0.00083876,-0.02956619,-0.06145033,-0.00100824,-0.02905755,
 0.00036822,-0.00098266,-0.00196814,-0.00525796,-0.00007323,-0.00027290
 ,0.00084063,-0.00000675,0.03303144,0.06087851,-0.00003774,0.00003659,0
 .00279225,0.00015355,0.00001213,-0.00473465,-0.00005495,-0.00000043,0.
 00151168,-0.00021037,0.00009742,0.00379212,-0.00075161,-0.00022236,0.0
 0925924,-0.00963060,-0.00105001,-0.04273506,-0.00043476,0.00006387,0.0
 0476571,-0.00016930,-0.00008286,0.00624589,0.00015348,0.00000616,-0.00
 364137,0.01088406,0.00113474,0.02521576,-0.00399250,-0.00269280,-0.000
 35682,-0.00202413,0.00159101,-0.00018185,0.00013089,-0.00039742,0.0000
 4639,0.00011010,0.00010936,0.00009276,-0.00037356,-0.00294724,-0.00020
 399,0.01051494,-0.01130067,0.00024801,-0.16130789,0.13683084,-0.004183
 38,-0.01419338,0.02591403,-0.00058389,0.00034485,-0.00061065,0.0000124
 5,0.00078507,0.00026350,0.00012708,0.16889465,-0.00141727,0.00155803,-
 0.00005081,-0.00072303,0.00072832,-0.00002598,0.00000565,-0.00029119,0
 .00000075,-0.00057988,-0.00004660,-0.00001804,-0.00414197,-0.00349565,
 -0.00014532,0.02005337,-0.01658081,0.00066268,0.13755459,-0.23586234,0
 .00449954,-0.00523405,0.00630466,-0.00017467,0.00091434,-0.00105811,0.
 00003054,-0.00022583,0.00108964,-0.00000489,-0.14657718,0.24687527,-0.
 00035688,-0.00009443,0.00654124,-0.00018340,0.00005223,0.00339473,0.00
 004618,-0.00001295,-0.00125091,0.00009206,0.00000478,-0.00264241,-0.00
 020344,-0.00010528,0.00563673,0.00026780,-0.00038876,0.00294016,-0.004
 18292,0.00447070,-0.03456416,-0.00060379,0.00087557,0.00362483,0.00001
 319,-0.00002114,-0.00002936,0.00012720,0.00001138,-0.00298184,0.004774
 08,-0.00479016,0.02442451,0.01048487,0.01693774,0.00035230,0.00227741,
 -0.00041409,0.00010329,-0.00076500,0.00034491,-0.00002120,-0.00175787,
 0.00221782,-0.00026975,-0.00083384,0.00023342,0.00003522,-0.00556031,0
 .00104153,-0.00051397,-0.00568148,-0.02902198,-0.00037741,-0.10787845,
 -0.10658059,-0.00260263,0.00019968,-0.00006265,0.00009064,-0.00032387,
 -0.00147332,-0.00002884,0.00111097,0.00037123,0.00020992,0.10872789,-0
 .01226532,-0.01396555,-0.00042353,-0.00443470,-0.00026380,-0.00014883,
 0.00224811,0.00003939,0.00007601,0.00481851,-0.00394068,0.00015486,-0.
 00000098,0.00129202,0.00000216,0.00007285,0.00150032,-0.00000366,0.001
 66600,0.00190144,0.00005385,-0.10852774,-0.28697025,-0.00384110,-0.000
 09735,-0.00001928,-0.00000138,0.00029744,-0.00000364,0.00000963,-0.000
 18278,0.00077879,-0.00000192,0.11640597,0.29965123,0.00032918,0.000564
 22,0.00038942,0.00010184,-0.00001393,-0.00078263,-0.00002107,0.0000114
 9,-0.00013775,-0.00026469,0.00006652,0.00628009,0.00003380,0.00001111,
 -0.00187656,-0.00051307,0.00002871,0.00967805,-0.00035523,-0.00097848,
 0.00491348,-0.00260495,-0.00377945,-0.03310338,0.00009051,-0.00000061,
 -0.00248605,-0.00002793,-0.00004985,0.00051027,0.00020917,0.00001635,-
 0.00509352,0.00302244,0.00412391,0.02170857\\-0.00004256,-0.00003312,-
 0.00000533,0.00002654,0.00008371,0.00001351,-0.00001313,-0.00004193,-0
 .00000737,-0.00002819,0.00001214,0.00000341,-0.00001851,-0.00003921,-0
 .00001639,0.00006620,0.00003965,0.00000003,0.00001735,-0.00002301,0.00
 000975,0.00002478,0.00004261,0.00000181,0.00002381,0.00002452,0.000006
 86,-0.00005753,-0.00003746,-0.00000009,0.00000079,0.00000241,-0.000002
 47,0.00000044,-0.00003031,-0.00000371\\\@


 EDUCATION DOESN'T COST 
           ... IT PAYS!

 -- POSTMARK, UNIV. OF MISSISSIPPI, DEC 78
 Job cpu time:       0 days  1 hours  2 minutes 17.2 seconds.
 Elapsed time:       0 days  0 hours  8 minutes 54.0 seconds.
 File lengths (MBytes):  RWF=    122 Int=      0 D2E=      0 Chk=      7 Scr=      1
 Normal termination of Gaussian 16 at Sat Nov  5 15:57:26 2016.
