 Entering Gaussian System, Link 0=/home/ubuntu/g16/g16
 Input=C6H4_UB3LYP-aug-cc-pVDZ-Opt.gjf
 Output=C6H4_UB3LYP-aug-cc-pVDZ-Opt.log
 Initial command:
 /home/ubuntu/g16/l1.exe "/home/ubuntu/g16/Gau-28722.inp" -scrdir="/home/ubuntu/g16/"
 Entering Link 1 = /home/ubuntu/g16/l1.exe PID=     28724.
  
 Copyright (c) 1988,1990,1992,1993,1995,1998,2003,2009,2016,
            Gaussian, Inc.  All Rights Reserved.
  
 This is part of the Gaussian(R) 16 program.  It is based on
 the Gaussian(R) 09 system (copyright 2009, Gaussian, Inc.),
 the Gaussian(R) 03 system (copyright 2003, Gaussian, Inc.),
 the Gaussian(R) 98 system (copyright 1998, Gaussian, Inc.),
 the Gaussian(R) 94 system (copyright 1995, Gaussian, Inc.),
 the Gaussian 92(TM) system (copyright 1992, Gaussian, Inc.),
 the Gaussian 90(TM) system (copyright 1990, Gaussian, Inc.),
 the Gaussian 88(TM) system (copyright 1988, Gaussian, Inc.),
 the Gaussian 86(TM) system (copyright 1986, Carnegie Mellon
 University), and the Gaussian 82(TM) system (copyright 1983,
 Carnegie Mellon University). Gaussian is a federally registered
 trademark of Gaussian, Inc.
  
 This software contains proprietary and confidential information,
 including trade secrets, belonging to Gaussian, Inc.
  
 This software is provided under written license and may be
 used, copied, transmitted, or stored only in accord with that
 written license.
  
 The following legend is applicable only to US Government
 contracts under FAR:
  
                    RESTRICTED RIGHTS LEGEND
  
 Use, reproduction and disclosure by the US Government is
 subject to restrictions as set forth in subparagraphs (a)
 and (c) of the Commercial Computer Software - Restricted
 Rights clause in FAR 52.227-19.
  
 Gaussian, Inc.
 340 Quinnipiac St., Bldg. 40, Wallingford CT 06492
  
  
 ---------------------------------------------------------------
 Warning -- This program may not be used in any manner that
 competes with the business of Gaussian, Inc. or will provide
 assistance to any competitor of Gaussian, Inc.  The licensee
 of this program is prohibited from giving any competitor of
 Gaussian, Inc. access to this program.  By using this program,
 the user acknowledges that Gaussian, Inc. is engaged in the
 business of creating and licensing software in the field of
 computational chemistry and represents and warrants to the
 licensee that it is not a competitor of Gaussian, Inc. and that
 it will not use this program in any manner prohibited above.
 ---------------------------------------------------------------
  

 Cite this work as:
 Gaussian 16, Revision A.03,
 M. J. Frisch, G. W. Trucks, H. B. Schlegel, G. E. Scuseria, 
 M. A. Robb, J. R. Cheeseman, G. Scalmani, V. Barone, 
 G. A. Petersson, H. Nakatsuji, X. Li, M. Caricato, A. V. Marenich, 
 J. Bloino, B. G. Janesko, R. Gomperts, B. Mennucci, H. P. Hratchian, 
 J. V. Ortiz, A. F. Izmaylov, J. L. Sonnenberg, D. Williams-Young, 
 F. Ding, F. Lipparini, F. Egidi, J. Goings, B. Peng, A. Petrone, 
 T. Henderson, D. Ranasinghe, V. G. Zakrzewski, J. Gao, N. Rega, 
 G. Zheng, W. Liang, M. Hada, M. Ehara, K. Toyota, R. Fukuda, 
 J. Hasegawa, M. Ishida, T. Nakajima, Y. Honda, O. Kitao, H. Nakai, 
 T. Vreven, K. Throssell, J. A. Montgomery, Jr., J. E. Peralta, 
 F. Ogliaro, M. J. Bearpark, J. J. Heyd, E. N. Brothers, K. N. Kudin, 
 V. N. Staroverov, T. A. Keith, R. Kobayashi, J. Normand, 
 K. Raghavachari, A. P. Rendell, J. C. Burant, S. S. Iyengar, 
 J. Tomasi, M. Cossi, J. M. Millam, M. Klene, C. Adamo, R. Cammi, 
 J. W. Ochterski, R. L. Martin, K. Morokuma, O. Farkas, 
 J. B. Foresman, and D. J. Fox, Gaussian, Inc., Wallingford CT, 2016.
 
 ******************************************
 Gaussian 16:  ES64L-G16RevA.03 25-Dec-2016
                 5-Nov-2016 
 ******************************************
 %chk=C6H4_UB3LYP-aug-cc-pVDZ-Opt.chk
 %mem=500MW
 %nproc=7
 Will use up to    7 processors via shared memory.
 ----------------------------------------------------------------------
 #p opt=(maxcycles=777) freq ub3lyp/aug-cc-pVDZ pop=(Bonding,AllOrbital
 s,mk,no,nboread)
 ----------------------------------------------------------------------
 1/6=777,18=20,19=15,26=3,38=1/1,3;
 2/9=110,12=2,17=6,18=5,40=1/2;
 3/5=16,7=10,11=2,25=1,30=1,71=1,74=-5,116=2/1,2,3;
 4//1;
 5/5=2,38=5/2;
 6/7=2,8=2,9=2,10=2,15=8,20=1,22=-1,27=20,28=1,31=1,40=2,96=-1/1,2,7;
 7//1,2,3,16;
 1/6=777,18=20,19=15,26=3/3(2);
 2/9=110/2;
 99//99;
 2/9=110/2;
 3/5=16,7=10,11=2,25=1,30=1,71=1,74=-5,116=2/1,2,3;
 4/5=5,16=3,69=1/1;
 5/5=2,38=5/2;
 7//1,2,3,16;
 1/6=777,18=20,19=15,26=3/3(-5);
 2/9=110/2;
 6/7=2,8=2,9=2,10=2,15=8,19=2,20=1,22=-1,27=20,28=1,31=1,40=2,96=-1/1,2,7;
 99/9=1/99;
 Leave Link    1 at Sat Nov  5 15:57:26 2016, MaxMem=   524288000 cpu:               0.3 elap:               0.0
 (Enter /home/ubuntu/g16/l101.exe)
 -----------------------
 C6H4_UB3LYP-aug-cc-pVDZ
 -----------------------
 Symbolic Z-matrix:
 Charge =  0 Multiplicity = 1
 C                    -1.17792  -0.38398  -0.05818 
 C                    -0.67018   0.76199  -0.04026 
 C                     0.68008   1.07936   0.00567 
 C                     1.46114  -0.10044   0.03158 
 C                     0.89026  -1.38795   0.01128 
 C                    -0.50825  -1.59919  -0.03611 
 H                     1.11962   2.07466   0.02135 
 H                     2.54862  -0.00389   0.069 
 H                     1.54862  -2.25877   0.03344 
 H                    -0.95308  -2.59211  -0.05166 
 
 ITRead=  0  0  0  0  0  0  0  0  0  0
 MicOpt= -1 -1 -1 -1 -1 -1 -1 -1 -1 -1
 NAtoms=     10 NQM=       10 NQMF=       0 NMMI=      0 NMMIF=      0
                NMic=       0 NMicF=      0.
                    Isotopes and Nuclear Properties:
 (Nuclear quadrupole moments (NQMom) in fm**2, nuclear magnetic moments (NMagM)
  in nuclear magnetons)

  Atom         1           2           3           4           5           6           7           8           9          10
 IAtWgt=          12          12          12          12          12          12           1           1           1           1
 AtmWgt=  12.0000000  12.0000000  12.0000000  12.0000000  12.0000000  12.0000000   1.0078250   1.0078250   1.0078250   1.0078250
 NucSpn=           0           0           0           0           0           0           1           1           1           1
 AtZEff=  -0.0000000  -0.0000000  -0.0000000  -0.0000000  -0.0000000  -0.0000000  -0.0000000  -0.0000000  -0.0000000  -0.0000000
 NQMom=    0.0000000   0.0000000   0.0000000   0.0000000   0.0000000   0.0000000   0.0000000   0.0000000   0.0000000   0.0000000
 NMagM=    0.0000000   0.0000000   0.0000000   0.0000000   0.0000000   0.0000000   2.7928460   2.7928460   2.7928460   2.7928460
 AtZNuc=   6.0000000   6.0000000   6.0000000   6.0000000   6.0000000   6.0000000   1.0000000   1.0000000   1.0000000   1.0000000
 Leave Link  101 at Sat Nov  5 15:57:26 2016, MaxMem=   524288000 cpu:               1.2 elap:               0.2
 (Enter /home/ubuntu/g16/l103.exe)

 GradGradGradGradGradGradGradGradGradGradGradGradGradGradGradGradGradGrad
 Berny optimization.
 Initialization pass.
                           ----------------------------
                           !    Initial Parameters    !
                           ! (Angstroms and Degrees)  !
 --------------------------                            --------------------------
 ! Name  Definition              Value          Derivative Info.                !
 --------------------------------------------------------------------------------
 ! R1    R(1,2)                  1.2535         estimate D2E/DX2                !
 ! R2    R(1,6)                  1.3877         estimate D2E/DX2                !
 ! R3    R(2,3)                  1.3878         estimate D2E/DX2                !
 ! R4    R(3,4)                  1.4152         estimate D2E/DX2                !
 ! R5    R(3,7)                  1.0881         estimate D2E/DX2                !
 ! R6    R(4,5)                  1.4085         estimate D2E/DX2                !
 ! R7    R(4,8)                  1.0924         estimate D2E/DX2                !
 ! R8    R(5,6)                  1.4152         estimate D2E/DX2                !
 ! R9    R(5,9)                  1.0919         estimate D2E/DX2                !
 ! R10   R(6,10)                 1.0881         estimate D2E/DX2                !
 ! A1    A(2,1,6)              127.2192         estimate D2E/DX2                !
 ! A2    A(1,2,3)              127.1292         estimate D2E/DX2                !
 ! A3    A(2,3,4)              110.3006         estimate D2E/DX2                !
 ! A4    A(2,3,7)              127.06           estimate D2E/DX2                !
 ! A5    A(4,3,7)              122.6394         estimate D2E/DX2                !
 ! A6    A(3,4,5)              122.554          estimate D2E/DX2                !
 ! A7    A(3,4,8)              118.4495         estimate D2E/DX2                !
 ! A8    A(5,4,8)              118.9964         estimate D2E/DX2                !
 ! A9    A(4,5,6)              122.5103         estimate D2E/DX2                !
 ! A10   A(4,5,9)              118.9685         estimate D2E/DX2                !
 ! A11   A(6,5,9)              118.5212         estimate D2E/DX2                !
 ! A12   A(1,6,5)              110.2866         estimate D2E/DX2                !
 ! A13   A(1,6,10)             126.9834         estimate D2E/DX2                !
 ! A14   A(5,6,10)             122.7301         estimate D2E/DX2                !
 ! D1    D(6,1,2,3)              0.0082         estimate D2E/DX2                !
 ! D2    D(2,1,6,5)             -0.012          estimate D2E/DX2                !
 ! D3    D(2,1,6,10)           179.9906         estimate D2E/DX2                !
 ! D4    D(1,2,3,4)             -0.0088         estimate D2E/DX2                !
 ! D5    D(1,2,3,7)           -179.9891         estimate D2E/DX2                !
 ! D6    D(2,3,4,5)              0.0156         estimate D2E/DX2                !
 ! D7    D(2,3,4,8)           -179.9699         estimate D2E/DX2                !
 ! D8    D(7,3,4,5)            179.997          estimate D2E/DX2                !
 ! D9    D(7,3,4,8)              0.0115         estimate D2E/DX2                !
 ! D10   D(3,4,5,6)             -0.0228         estimate D2E/DX2                !
 ! D11   D(3,4,5,9)           -179.9855         estimate D2E/DX2                !
 ! D12   D(8,4,5,6)            179.9626         estimate D2E/DX2                !
 ! D13   D(8,4,5,9)             -0.0001         estimate D2E/DX2                !
 ! D14   D(4,5,6,1)              0.0187         estimate D2E/DX2                !
 ! D15   D(4,5,6,10)          -179.9838         estimate D2E/DX2                !
 ! D16   D(9,5,6,1)            179.9815         estimate D2E/DX2                !
 ! D17   D(9,5,6,10)            -0.0209         estimate D2E/DX2                !
 --------------------------------------------------------------------------------
 Trust Radius=3.00D-01 FncErr=1.00D-07 GrdErr=1.00D-06 EigMax=2.50D+02 EigMin=1.00D-04
 Number of steps in this run=    100 maximum allowed number of steps=    100.
 GradGradGradGradGradGradGradGradGradGradGradGradGradGradGradGradGradGrad

 Leave Link  103 at Sat Nov  5 15:57:26 2016, MaxMem=   524288000 cpu:               0.1 elap:               0.0
 (Enter /home/ubuntu/g16/l202.exe)
                          Input orientation:                          
 ---------------------------------------------------------------------
 Center     Atomic      Atomic             Coordinates (Angstroms)
 Number     Number       Type             X           Y           Z
 ---------------------------------------------------------------------
      1          6           0       -1.177920   -0.383980   -0.058180
      2          6           0       -0.670180    0.761990   -0.040260
      3          6           0        0.680080    1.079360    0.005670
      4          6           0        1.461140   -0.100440    0.031580
      5          6           0        0.890260   -1.387950    0.011280
      6          6           0       -0.508250   -1.599190   -0.036110
      7          1           0        1.119620    2.074660    0.021350
      8          1           0        2.548620   -0.003890    0.069000
      9          1           0        1.548620   -2.258770    0.033440
     10          1           0       -0.953080   -2.592110   -0.051660
 ---------------------------------------------------------------------
                    Distance matrix (angstroms):
                    1          2          3          4          5
     1  C    0.000000
     2  C    1.253542   0.000000
     3  C    2.365926   1.387817   0.000000
     4  C    2.655765   2.300320   1.415152   0.000000
     5  C    2.300032   2.657042   2.476252   1.408545   0.000000
     6  C    1.387689   2.366730   2.930615   2.475748   1.415167
     7  H    3.365996   2.220424   1.088147   2.201772   3.470213
     8  H    3.748032   3.310466   2.160760   1.092399   2.160813
     9  H    3.310174   3.748799   3.449383   2.160103   1.091905
    10  H    2.219557   3.366029   4.018730   3.470419   2.202695
                    6          7          8          9         10
     6  C    0.000000
     7  H    4.018761   0.000000
     8  H    3.449708   2.522832   0.000000
     9  H    2.161156   4.354630   2.466931   0.000000
    10  H    1.088120   5.106874   4.356070   2.525245   0.000000
 Stoichiometry    C6H4
 Framework group  C1[X(C6H4)]
 Deg. of freedom    24
 Full point group                 C1      NOp   1
 Largest Abelian subgroup         C1      NOp   1
 Largest concise Abelian subgroup C1      NOp   1
                         Standard orientation:                         
 ---------------------------------------------------------------------
 Center     Atomic      Atomic             Coordinates (Angstroms)
 Number     Number       Type             X           Y           Z
 ---------------------------------------------------------------------
      1          6           0        0.626097   -1.239157    0.000006
      2          6           0       -0.627446   -1.239335    0.000024
      3          6           0       -1.465310   -0.132981   -0.000069
      4          6           0       -0.703658    1.059722    0.000009
      5          6           0        0.704887    1.059526   -0.000164
      6          6           0        1.465305   -0.133983    0.000046
      7          1           0       -2.553456   -0.134451    0.000111
      8          1           0       -1.233071    2.015262    0.000455
      9          1           0        1.233860    2.014745    0.000151
     10          1           0        2.553417   -0.138306    0.000173
 ---------------------------------------------------------------------
 Rotational constants (GHZ):           6.9928178           5.6738235           3.1323232
 Leave Link  202 at Sat Nov  5 15:57:26 2016, MaxMem=   524288000 cpu:               0.0 elap:               0.0
 (Enter /home/ubuntu/g16/l301.exe)
 Standard basis: Aug-CC-pVDZ (5D, 7F)
 Ernie: Thresh=  0.10000D-02 Tol=  0.10000D-05 Strict=F.
 Ernie:  12 primitive shells out of 178 were deleted.
 There are   186 symmetry adapted cartesian basis functions of A   symmetry.
 There are   174 symmetry adapted basis functions of A   symmetry.
   174 basis functions,   302 primitive gaussians,   186 cartesian basis functions
    20 alpha electrons       20 beta electrons
       nuclear repulsion energy       186.9994311736 Hartrees.
 IExCor=  402 DFT=T Ex+Corr=B3LYP ExCW=0 ScaHFX=  0.200000
 ScaDFX=  0.800000  0.720000  1.000000  0.810000 ScalE2=  1.000000  1.000000
 IRadAn=      5 IRanWt=     -1 IRanGd=            0 ICorTp=0 IEmpDi=  4
 NAtoms=   10 NActive=   10 NUniq=   10 SFac= 1.00D+00 NAtFMM=   60 NAOKFM=F Big=F
 Integral buffers will be    131072 words long.
 Raffenetti 2 integral format.
 Two-electron integral symmetry is turned on.
 Leave Link  301 at Sat Nov  5 15:57:26 2016, MaxMem=   524288000 cpu:               0.2 elap:               0.0
 (Enter /home/ubuntu/g16/l302.exe)
 NPDir=0 NMtPBC=     1 NCelOv=     1 NCel=       1 NClECP=     1 NCelD=      1
         NCelK=      1 NCelE2=     1 NClLst=     1 CellRange=     0.0.
 One-electron integrals computed using PRISM.
 One-electron integral symmetry used in STVInt
 NBasis=   174 RedAO= T EigKep=  4.28D-06  NBF=   174
 NBsUse=   174 1.00D-06 EigRej= -1.00D+00 NBFU=   174
 Precomputing XC quadrature grid using
 IXCGrd= 4 IRadAn=           5 IRanWt=          -1 IRanGd=           0 AccXCQ= 0.00D+00.
 Generated NRdTot=       0 NPtTot=           0 NUsed=           0 NTot=          32
 NSgBfM=   186   186   186   186   186 MxSgAt=    10 MxSgA2=    10.
 Leave Link  302 at Sat Nov  5 15:57:26 2016, MaxMem=   524288000 cpu:               1.6 elap:               0.2
 (Enter /home/ubuntu/g16/l303.exe)
 DipDrv:  MaxL=1.
 Leave Link  303 at Sat Nov  5 15:57:27 2016, MaxMem=   524288000 cpu:               0.2 elap:               0.0
 (Enter /home/ubuntu/g16/l401.exe)
 ExpMin= 2.97D-02 ExpMax= 6.67D+03 ExpMxC= 2.28D+02 IAcc=3 IRadAn=         5 AccDes= 0.00D+00
 Harris functional with IExCor=  402 and IRadAn=       5 diagonalized for initial guess.
 HarFok:  IExCor=  402 AccDes= 0.00D+00 IRadAn=         5 IDoV= 1 UseB2=F ITyADJ=14
 ICtDFT=  3500011 ScaDFX=  1.000000  1.000000  1.000000  1.000000
 FoFCou: FMM=F IPFlag=           0 FMFlag=      100000 FMFlg1=           0
         NFxFlg=           0 DoJE=T BraDBF=F KetDBF=T FulRan=T
         wScrn=  0.000000 ICntrl=       500 IOpCl=  0 I1Cent=   200000004 NGrid=           0
         NMat0=    1 NMatS0=      1 NMatT0=    0 NMatD0=    1 NMtDS0=    0 NMtDT0=    0
 Petite list used in FoFCou.
 Harris En= -230.949128991560    
 JPrj=0 DoOrth=F DoCkMO=F.
 Initial guess <Sx>= 0.0000 <Sy>= 0.0000 <Sz>= 0.0000 <S**2>= 0.0000 S= 0.0000
 Leave Link  401 at Sat Nov  5 15:57:28 2016, MaxMem=   524288000 cpu:               8.2 elap:               1.2
 (Enter /home/ubuntu/g16/l502.exe)
 Keep R1 and R2 ints in memory in canonical form, NReq=238905191.
 FoFCou: FMM=F IPFlag=           0 FMFlag=           0 FMFlg1=           0
         NFxFlg=           0 DoJE=F BraDBF=F KetDBF=F FulRan=T
         wScrn=  0.000000 ICntrl=       600 IOpCl=  0 I1Cent=           0 NGrid=           0
         NMat0=    1 NMatS0=  15225 NMatT0=    0 NMatD0=    1 NMtDS0=    0 NMtDT0=    0
 Symmetry not used in FoFCou.
 Two-electron integral symmetry not used.
 UHF open shell SCF:
 Using DIIS extrapolation, IDIIS=  1040.
 NGot=   524288000 LenX=   292399830 LenY=   292364793
 Requested convergence on RMS density matrix=1.00D-08 within 128 cycles.
 Requested convergence on MAX density matrix=1.00D-06.
 Requested convergence on             energy=1.00D-06.
 No special actions if energy rises.

 Cycle   1  Pass 1  IDiag  1:
 E= -230.811030196506    
 DIIS: error= 2.47D-02 at cycle   1 NSaved=   1.
 NSaved= 1 IEnMin= 1 EnMin= -230.811030196506     IErMin= 1 ErrMin= 2.47D-02
 ErrMax= 2.47D-02  0.00D+00 EMaxC= 1.00D-01 BMatC= 4.14D-01 BMatP= 4.14D-01
 IDIUse=3 WtCom= 7.53D-01 WtEn= 2.47D-01
 Coeff-Com:  0.100D+01
 Coeff-En:   0.100D+01
 Coeff:      0.100D+01
 Gap=     0.162 Goal=   None    Shift=    0.000
 Gap=     0.162 Goal=   None    Shift=    0.000
 GapD=    0.162 DampG=1.000 DampE=0.500 DampFc=0.5000 IDamp=-1.
 Damping current iteration by 5.00D-01
 RMSDP=3.64D-02 MaxDP=6.86D-01              OVMax= 1.71D-01

 Cycle   2  Pass 1  IDiag  1:
 E= -230.865194979564     Delta-E=       -0.054164783058 Rises=F Damp=T
 DIIS: error= 5.96D-03 at cycle   2 NSaved=   2.
 NSaved= 2 IEnMin= 2 EnMin= -230.865194979564     IErMin= 2 ErrMin= 5.96D-03
 ErrMax= 5.96D-03  0.00D+00 EMaxC= 1.00D-01 BMatC= 2.20D-02 BMatP= 4.14D-01
 IDIUse=3 WtCom= 9.40D-01 WtEn= 5.96D-02
 Coeff-Com:  0.602D-01 0.940D+00
 Coeff-En:   0.118D+00 0.882D+00
 Coeff:      0.636D-01 0.936D+00
 Gap=     0.197 Goal=   None    Shift=    0.000
 Gap=     0.197 Goal=   None    Shift=    0.000
 RMSDP=1.28D-02 MaxDP=3.88D-01 DE=-5.42D-02 OVMax= 9.57D-02

 Cycle   3  Pass 1  IDiag  1:
 E= -230.934954749808     Delta-E=       -0.069759770245 Rises=F Damp=F
 DIIS: error= 3.07D-03 at cycle   3 NSaved=   3.
 NSaved= 3 IEnMin= 3 EnMin= -230.934954749808     IErMin= 3 ErrMin= 3.07D-03
 ErrMax= 3.07D-03  0.00D+00 EMaxC= 1.00D-01 BMatC= 8.89D-03 BMatP= 2.20D-02
 IDIUse=3 WtCom= 9.69D-01 WtEn= 3.07D-02
 Coeff-Com: -0.296D-01 0.363D+00 0.667D+00
 Coeff-En:   0.000D+00 0.000D+00 0.100D+01
 Coeff:     -0.286D-01 0.351D+00 0.677D+00
 Gap=     0.186 Goal=   None    Shift=    0.000
 Gap=     0.186 Goal=   None    Shift=    0.000
 RMSDP=9.99D-04 MaxDP=3.09D-02 DE=-6.98D-02 OVMax= 2.98D-02

 Cycle   4  Pass 1  IDiag  1:
 E= -230.936278921301     Delta-E=       -0.001324171492 Rises=F Damp=F
 DIIS: error= 3.25D-03 at cycle   4 NSaved=   4.
 NSaved= 4 IEnMin= 4 EnMin= -230.936278921301     IErMin= 3 ErrMin= 3.07D-03
 ErrMax= 3.25D-03  0.00D+00 EMaxC= 1.00D-01 BMatC= 3.42D-03 BMatP= 8.89D-03
 IDIUse=3 WtCom= 9.67D-01 WtEn= 3.25D-02
 Coeff-Com: -0.252D-01 0.155D+00 0.430D+00 0.440D+00
 Coeff-En:   0.000D+00 0.000D+00 0.308D+00 0.692D+00
 Coeff:     -0.244D-01 0.150D+00 0.426D+00 0.448D+00
 Gap=     0.186 Goal=   None    Shift=    0.000
 Gap=     0.186 Goal=   None    Shift=    0.000
 RMSDP=4.96D-04 MaxDP=1.10D-02 DE=-1.32D-03 OVMax= 1.76D-02

 Cycle   5  Pass 1  IDiag  1:
 E= -230.937308497306     Delta-E=       -0.001029576005 Rises=F Damp=F
 DIIS: error= 7.18D-04 at cycle   5 NSaved=   5.
 NSaved= 5 IEnMin= 5 EnMin= -230.937308497306     IErMin= 5 ErrMin= 7.18D-04
 ErrMax= 7.18D-04  0.00D+00 EMaxC= 1.00D-01 BMatC= 1.51D-04 BMatP= 3.42D-03
 IDIUse=3 WtCom= 9.93D-01 WtEn= 7.18D-03
 Coeff-Com: -0.786D-02 0.128D-01 0.724D-01 0.205D+00 0.717D+00
 Coeff-En:   0.000D+00 0.000D+00 0.000D+00 0.000D+00 0.100D+01
 Coeff:     -0.781D-02 0.127D-01 0.719D-01 0.204D+00 0.719D+00
 Gap=     0.185 Goal=   None    Shift=    0.000
 Gap=     0.185 Goal=   None    Shift=    0.000
 RMSDP=1.46D-04 MaxDP=4.17D-03 DE=-1.03D-03 OVMax= 2.79D-03

 Cycle   6  Pass 1  IDiag  1:
 E= -230.937356034672     Delta-E=       -0.000047537366 Rises=F Damp=F
 DIIS: error= 2.67D-05 at cycle   6 NSaved=   6.
 NSaved= 6 IEnMin= 6 EnMin= -230.937356034672     IErMin= 6 ErrMin= 2.67D-05
 ErrMax= 2.67D-05  0.00D+00 EMaxC= 1.00D-01 BMatC= 7.18D-07 BMatP= 1.51D-04
 IDIUse=1 WtCom= 1.00D+00 WtEn= 0.00D+00
 Coeff-Com: -0.141D-02 0.887D-03 0.117D-01 0.396D-01 0.168D+00 0.781D+00
 Coeff:     -0.141D-02 0.887D-03 0.117D-01 0.396D-01 0.168D+00 0.781D+00
 Gap=     0.185 Goal=   None    Shift=    0.000
 Gap=     0.185 Goal=   None    Shift=    0.000
 RMSDP=1.32D-05 MaxDP=4.96D-04 DE=-4.75D-05 OVMax= 5.64D-04

 Cycle   7  Pass 1  IDiag  1:
 E= -230.937355695872     Delta-E=        0.000000338800 Rises=F Damp=F
 DIIS: error= 5.83D-05 at cycle   7 NSaved=   7.
 NSaved= 7 IEnMin= 6 EnMin= -230.937356034672     IErMin= 6 ErrMin= 2.67D-05
 ErrMax= 5.83D-05  0.00D+00 EMaxC= 1.00D-01 BMatC= 1.97D-06 BMatP= 7.18D-07
 IDIUse=1 WtCom= 1.00D+00 WtEn= 0.00D+00
 Coeff-Com: -0.461D-03-0.376D-03 0.326D-02 0.144D-01 0.741D-01 0.622D+00
 Coeff-Com:  0.287D+00
 Coeff:     -0.461D-03-0.376D-03 0.326D-02 0.144D-01 0.741D-01 0.622D+00
 Coeff:      0.287D+00
 Gap=     0.185 Goal=   None    Shift=    0.000
 Gap=     0.185 Goal=   None    Shift=    0.000
 RMSDP=6.20D-06 MaxDP=2.30D-04 DE= 3.39D-07 OVMax= 4.03D-04

 Cycle   8  Pass 1  IDiag  1:
 E= -230.937356246330     Delta-E=       -0.000000550457 Rises=F Damp=F
 DIIS: error= 3.95D-06 at cycle   8 NSaved=   8.
 NSaved= 8 IEnMin= 8 EnMin= -230.937356246330     IErMin= 8 ErrMin= 3.95D-06
 ErrMax= 3.95D-06  0.00D+00 EMaxC= 1.00D-01 BMatC= 1.33D-08 BMatP= 7.18D-07
 IDIUse=1 WtCom= 1.00D+00 WtEn= 0.00D+00
 Coeff-Com: -0.389D-04-0.225D-03 0.205D-03 0.192D-02 0.129D-01 0.161D+00
 Coeff-Com:  0.109D+00 0.715D+00
 Coeff:     -0.389D-04-0.225D-03 0.205D-03 0.192D-02 0.129D-01 0.161D+00
 Coeff:      0.109D+00 0.715D+00
 Gap=     0.185 Goal=   None    Shift=    0.000
 Gap=     0.185 Goal=   None    Shift=    0.000
 RMSDP=1.30D-06 MaxDP=4.50D-05 DE=-5.50D-07 OVMax= 2.94D-05

 Cycle   9  Pass 1  IDiag  1:
 E= -230.937356248889     Delta-E=       -0.000000002560 Rises=F Damp=F
 DIIS: error= 3.52D-06 at cycle   9 NSaved=   9.
 NSaved= 9 IEnMin= 9 EnMin= -230.937356248889     IErMin= 9 ErrMin= 3.52D-06
 ErrMax= 3.52D-06  0.00D+00 EMaxC= 1.00D-01 BMatC= 5.84D-09 BMatP= 1.33D-08
 IDIUse=1 WtCom= 1.00D+00 WtEn= 0.00D+00
 Coeff-Com:  0.480D-04-0.976D-04-0.396D-03-0.909D-03-0.266D-02 0.170D-01
 Coeff-Com:  0.292D-01 0.447D+00 0.511D+00
 Coeff:      0.480D-04-0.976D-04-0.396D-03-0.909D-03-0.266D-02 0.170D-01
 Coeff:      0.292D-01 0.447D+00 0.511D+00
 Gap=     0.185 Goal=   None    Shift=    0.000
 Gap=     0.185 Goal=   None    Shift=    0.000
 RMSDP=6.58D-07 MaxDP=1.65D-05 DE=-2.56D-09 OVMax= 1.15D-05

 Cycle  10  Pass 1  IDiag  1:
 E= -230.937356250358     Delta-E=       -0.000000001469 Rises=F Damp=F
 DIIS: error= 3.86D-07 at cycle  10 NSaved=  10.
 NSaved=10 IEnMin=10 EnMin= -230.937356250358     IErMin=10 ErrMin= 3.86D-07
 ErrMax= 3.86D-07  0.00D+00 EMaxC= 1.00D-01 BMatC= 3.34D-11 BMatP= 5.84D-09
 IDIUse=1 WtCom= 1.00D+00 WtEn= 0.00D+00
 Coeff-Com:  0.878D-05-0.604D-05-0.811D-04-0.173D-03-0.988D-03-0.497D-02
 Coeff-Com:  0.587D-04 0.437D-01 0.648D-01 0.898D+00
 Coeff:      0.878D-05-0.604D-05-0.811D-04-0.173D-03-0.988D-03-0.497D-02
 Coeff:      0.587D-04 0.437D-01 0.648D-01 0.898D+00
 Gap=     0.185 Goal=   None    Shift=    0.000
 Gap=     0.185 Goal=   None    Shift=    0.000
 RMSDP=1.14D-07 MaxDP=3.91D-06 DE=-1.47D-09 OVMax= 2.45D-06

 Cycle  11  Pass 1  IDiag  1:
 E= -230.937356250376     Delta-E=       -0.000000000018 Rises=F Damp=F
 DIIS: error= 9.68D-08 at cycle  11 NSaved=  11.
 NSaved=11 IEnMin=11 EnMin= -230.937356250376     IErMin=11 ErrMin= 9.68D-08
 ErrMax= 9.68D-08  0.00D+00 EMaxC= 1.00D-01 BMatC= 4.66D-12 BMatP= 3.34D-11
 IDIUse=1 WtCom= 1.00D+00 WtEn= 0.00D+00
 Coeff-Com:  0.259D-05-0.183D-06-0.250D-04-0.510D-04-0.360D-03-0.256D-02
 Coeff-Com: -0.718D-03 0.742D-02 0.105D-01 0.360D+00 0.625D+00
 Coeff:      0.259D-05-0.183D-06-0.250D-04-0.510D-04-0.360D-03-0.256D-02
 Coeff:     -0.718D-03 0.742D-02 0.105D-01 0.360D+00 0.625D+00
 Gap=     0.185 Goal=   None    Shift=    0.000
 Gap=     0.185 Goal=   None    Shift=    0.000
 RMSDP=2.32D-08 MaxDP=7.07D-07 DE=-1.76D-11 OVMax= 8.74D-07

 Cycle  12  Pass 1  IDiag  1:
 E= -230.937356250374     Delta-E=        0.000000000002 Rises=F Damp=F
 DIIS: error= 6.54D-08 at cycle  12 NSaved=  12.
 NSaved=12 IEnMin=11 EnMin= -230.937356250376     IErMin=12 ErrMin= 6.54D-08
 ErrMax= 6.54D-08  0.00D+00 EMaxC= 1.00D-01 BMatC= 1.96D-12 BMatP= 4.66D-12
 IDIUse=1 WtCom= 1.00D+00 WtEn= 0.00D+00
 Coeff-Com: -0.217D-06 0.110D-05 0.162D-05 0.536D-05-0.159D-04-0.515D-03
 Coeff-Com: -0.428D-03-0.485D-02-0.879D-02 0.217D-01 0.407D+00 0.586D+00
 Coeff:     -0.217D-06 0.110D-05 0.162D-05 0.536D-05-0.159D-04-0.515D-03
 Coeff:     -0.428D-03-0.485D-02-0.879D-02 0.217D-01 0.407D+00 0.586D+00
 Gap=     0.185 Goal=   None    Shift=    0.000
 Gap=     0.185 Goal=   None    Shift=    0.000
 RMSDP=1.06D-08 MaxDP=2.83D-07 DE= 1.71D-12 OVMax= 3.98D-07

 Cycle  13  Pass 1  IDiag  1:
 E= -230.937356250371     Delta-E=        0.000000000003 Rises=F Damp=F
 DIIS: error= 1.17D-08 at cycle  13 NSaved=  13.
 NSaved=13 IEnMin=11 EnMin= -230.937356250376     IErMin=13 ErrMin= 1.17D-08
 ErrMax= 1.17D-08  0.00D+00 EMaxC= 1.00D-01 BMatC= 2.84D-14 BMatP= 1.96D-12
 IDIUse=1 WtCom= 1.00D+00 WtEn= 0.00D+00
 Coeff-Com: -0.194D-06 0.158D-06 0.206D-05 0.550D-05 0.213D-04 0.870D-04
 Coeff-Com: -0.253D-04-0.138D-02-0.262D-02-0.254D-01 0.489D-01 0.139D+00
 Coeff-Com:  0.841D+00
 Coeff:     -0.194D-06 0.158D-06 0.206D-05 0.550D-05 0.213D-04 0.870D-04
 Coeff:     -0.253D-04-0.138D-02-0.262D-02-0.254D-01 0.489D-01 0.139D+00
 Coeff:      0.841D+00
 Gap=     0.185 Goal=   None    Shift=    0.000
 Gap=     0.185 Goal=   None    Shift=    0.000
 RMSDP=2.32D-09 MaxDP=5.92D-08 DE= 3.13D-12 OVMax= 8.24D-08

 SCF Done:  E(UB3LYP) =  -230.937356250     A.U. after   13 cycles
            NFock= 13  Conv=0.23D-08     -V/T= 2.0067
 <Sx>= 0.0000 <Sy>= 0.0000 <Sz>= 0.0000 <S**2>=-0.0000 S=-0.0000
 <L.S>= 0.000000000000E+00
 KE= 2.294085076434D+02 PE=-9.087436333509D+02 EE= 2.613983382835D+02
 Annihilation of the first spin contaminant:
 S**2 before annihilation    -0.0000,   after     0.0000
 Leave Link  502 at Sat Nov  5 15:57:59 2016, MaxMem=   524288000 cpu:             201.2 elap:              31.1
 (Enter /home/ubuntu/g16/l601.exe)
 Copying SCF densities to generalized density rwf, IOpCl= 1 IROHF=0.

 **********************************************************************

            Population analysis using the SCF density.

 **********************************************************************

 Orbital symmetries:
 Alpha Orbitals:
       Occupied  (A) (A) (A) (A) (A) (A) (A) (A) (A) (A) (A) (A)
                 (A) (A) (A) (A) (A) (A) (A) (A)
       Virtual   (A) (A) (A) (A) (A) (A) (A) (A) (A) (A) (A) (A)
                 (A) (A) (A) (A) (A) (A) (A) (A) (A) (A) (A) (A)
                 (A) (A) (A) (A) (A) (A) (A) (A) (A) (A) (A) (A)
                 (A) (A) (A) (A) (A) (A) (A) (A) (A) (A) (A) (A)
                 (A) (A) (A) (A) (A) (A) (A) (A) (A) (A) (A) (A)
                 (A) (A) (A) (A) (A) (A) (A) (A) (A) (A) (A) (A)
                 (A) (A) (A) (A) (A) (A) (A) (A) (A) (A) (A) (A)
                 (A) (A) (A) (A) (A) (A) (A) (A) (A) (A) (A) (A)
                 (A) (A) (A) (A) (A) (A) (A) (A) (A) (A) (A) (A)
                 (A) (A) (A) (A) (A) (A) (A) (A) (A) (A) (A) (A)
                 (A) (A) (A) (A) (A) (A) (A) (A) (A) (A) (A) (A)
                 (A) (A) (A) (A) (A) (A) (A) (A) (A) (A) (A) (A)
                 (A) (A) (A) (A) (A) (A) (A) (A) (A) (A)
 Beta  Orbitals:
       Occupied  (A) (A) (A) (A) (A) (A) (A) (A) (A) (A) (A) (A)
                 (A) (A) (A) (A) (A) (A) (A) (A)
       Virtual   (A) (A) (A) (A) (A) (A) (A) (A) (A) (A) (A) (A)
                 (A) (A) (A) (A) (A) (A) (A) (A) (A) (A) (A) (A)
                 (A) (A) (A) (A) (A) (A) (A) (A) (A) (A) (A) (A)
                 (A) (A) (A) (A) (A) (A) (A) (A) (A) (A) (A) (A)
                 (A) (A) (A) (A) (A) (A) (A) (A) (A) (A) (A) (A)
                 (A) (A) (A) (A) (A) (A) (A) (A) (A) (A) (A) (A)
                 (A) (A) (A) (A) (A) (A) (A) (A) (A) (A) (A) (A)
                 (A) (A) (A) (A) (A) (A) (A) (A) (A) (A) (A) (A)
                 (A) (A) (A) (A) (A) (A) (A) (A) (A) (A) (A) (A)
                 (A) (A) (A) (A) (A) (A) (A) (A) (A) (A) (A) (A)
                 (A) (A) (A) (A) (A) (A) (A) (A) (A) (A) (A) (A)
                 (A) (A) (A) (A) (A) (A) (A) (A) (A) (A) (A) (A)
                 (A) (A) (A) (A) (A) (A) (A) (A) (A) (A)
 The electronic state is 1-A.
     Natural Orbital Coefficients:
                           1         2         3         4         5
     Eigenvalues --     2.00000   2.00000   2.00000   2.00000   2.00000
   1 1   C  1S          0.06458  -0.13172   0.03488   0.34822   0.02017
   2        2S         -0.05913   0.03456  -0.10861  -0.16230   0.00104
   3        3S         -0.20475   0.11222  -0.26679  -0.25847   0.04820
   4        4S          0.09557   0.33817   0.05442   0.14652  -0.05477
   5        5PX        -0.15673  -0.00488   0.01595  -0.09698   0.09952
   6        5PY        -0.12533   0.01199   0.06571   0.01139  -0.07669
   7        5PZ         0.03886   0.02132   0.13725   0.04686   0.20741
   8        6PX        -0.08821  -0.06621  -0.07835  -0.11552   0.05730
   9        6PY        -0.12101  -0.09193  -0.02577  -0.05943  -0.00243
  10        6PZ         0.01916   0.01150   0.06439   0.02293   0.09080
  11        7PX         0.09747   0.27614   0.06553   0.16969  -0.07456
  12        7PY         0.12574   0.25576   0.06788   0.15770  -0.07886
  13        7PZ         0.00197   0.00198   0.00495   0.00143   0.00405
  14        8D 0       -0.00205  -0.00433  -0.00357   0.00457   0.00325
  15        8D+1       -0.00225  -0.00254  -0.00724   0.00055  -0.01100
  16        8D-1        0.00048  -0.00095   0.00322   0.00290   0.00678
  17        8D+2        0.01256   0.00614  -0.00373   0.00189  -0.00519
  18        8D-2        0.00158   0.00629  -0.00467  -0.00814   0.00602
  19        9D 0       -0.00093  -0.00900  -0.00551   0.00273   0.00135
  20        9D+1       -0.00019  -0.00024  -0.00058   0.00017  -0.00092
  21        9D-1       -0.00011  -0.00057   0.00032   0.00079   0.00139
  22        9D+2        0.01204   0.02443   0.00686   0.00431  -0.00576
  23        9D-2        0.01917   0.03878  -0.02408   0.00143  -0.01134
  24 2   C  1S         -0.02436  -0.38656   0.10724   0.33022  -0.18292
  25        2S          0.03426   0.03112   0.14476  -0.09707  -0.08778
  26        3S         -0.01531   0.15212   0.19201  -0.14895  -0.05958
  27        4S         -0.17567  -0.30713  -0.03726  -0.21210   0.14221
  28        5PX         0.08893   0.02087  -0.20909   0.05899  -0.04593
  29        5PY        -0.08728   0.01076   0.14915   0.06326  -0.12369
  30        5PZ         0.04433   0.03434   0.15783   0.02300   0.25423
  31        6PX        -0.01047  -0.15708  -0.04404   0.02555   0.02635
  32        6PY        -0.01028   0.16645   0.05743   0.06743  -0.09013
  33        6PZ         0.02264   0.01983   0.07741   0.00784   0.12053
  34        7PX         0.16040   0.25033   0.07342   0.17247  -0.09123
  35        7PY        -0.11530  -0.26191  -0.06411  -0.14912   0.07902
  36        7PZ         0.00239   0.00295   0.00651  -0.00038   0.00757
  37        8D 0       -0.00007   0.00391  -0.00275   0.00468   0.00334
  38        8D+1        0.00152   0.00080   0.00450   0.00263   0.00478
  39        8D-1        0.00105   0.00039   0.00534   0.00046   0.01160
  40        8D+2        0.00444  -0.00519  -0.01042  -0.01148   0.00294
  41        8D-2       -0.00254   0.00976  -0.00747   0.00657  -0.00271
  42        9D 0        0.00434   0.00668  -0.00267   0.00997  -0.00565
  43        9D+1        0.00009   0.00003   0.00021   0.00029   0.00006
  44        9D-1        0.00005  -0.00017   0.00092   0.00010   0.00278
  45        9D+2       -0.00253  -0.03284   0.00998  -0.01435   0.00746
  46        9D-2       -0.00364   0.01905   0.00524   0.02953  -0.00341
  47 3   C  1S         -0.03347   0.19196  -0.12416  -0.28263   0.06232
  48        2S         -0.01673  -0.22866   0.14900  -0.03883  -0.08137
  49        3S         -0.06411  -0.26561   0.13113   0.22589  -0.10420
  50        4S          0.20812   0.92546   0.11776   0.41590  -0.23066
  51        5PX        -0.10637   0.24421   0.14687   0.09894  -0.09318
  52        5PY        -0.00283  -0.03953  -0.17673   0.14201   0.00370
  53        5PZ         0.02156   0.00967   0.10902   0.00515   0.23738
  54        6PX         0.02886  -0.23436  -0.07193   0.02822  -0.00060
  55        6PY         0.02580   0.00049  -0.00026   0.07662  -0.05405
  56        6PZ         0.01085   0.00599   0.05449  -0.00044   0.11948
  57        7PX         0.04436   0.11051  -0.01046   0.09352  -0.03304
  58        7PY        -0.15742  -0.16096  -0.06219  -0.15136   0.08060
  59        7PZ         0.00091   0.00119   0.00417  -0.00157   0.00926
  60        8D 0       -0.00257   0.00333  -0.00355   0.00089   0.00443
  61        8D+1        0.00134   0.00027   0.00668   0.00139   0.01394
  62        8D-1       -0.00207  -0.00268  -0.00472  -0.00010  -0.00315
  63        8D+2        0.01321  -0.01562  -0.01150  -0.00489   0.00035
  64        8D-2        0.00721  -0.00577  -0.01140   0.00342   0.00437
  65        9D 0       -0.01130  -0.00703   0.00913  -0.00523   0.00281
  66        9D+1        0.00014  -0.00021   0.00053   0.00063   0.00087
  67        9D-1       -0.00049  -0.00082  -0.00072   0.00014   0.00057
  68        9D+2       -0.00125   0.08880  -0.00738   0.00613  -0.01688
  69        9D-2       -0.00550   0.02430   0.04306   0.00465  -0.02466
  70 4   C  1S          0.01667  -0.06956   0.04193   0.10530  -0.03577
  71        2S          0.08411   0.01182  -0.00043   0.00968  -0.08051
  72        3S          0.20517   0.03812  -0.18045   0.09407  -0.01652
  73        4S         -0.16692  -0.78631   0.02647  -0.52320   0.19219
  74        5PX         0.27543  -0.03542  -0.03176  -0.21047   0.04267
  75        5PY        -0.05553   0.09486  -0.00063  -0.03801   0.00490
  76        5PZ        -0.00592  -0.02967   0.04162   0.01930   0.17188
  77        6PX         0.12185  -0.03552  -0.03656   0.18418  -0.06987
  78        6PY         0.02945  -0.13170  -0.03509   0.01410  -0.00116
  79        6PZ        -0.00528  -0.01718   0.01529   0.00762   0.08263
  80        7PX        -0.16151  -0.18907  -0.02652  -0.23138   0.09105
  81        7PY        -0.00726   0.05756  -0.01122  -0.01840   0.00481
  82        7PZ        -0.00155  -0.00237  -0.00183  -0.00046   0.00376
  83        8D 0        0.00072   0.00395  -0.00432   0.00190   0.00438
  84        8D+1       -0.00108  -0.00245  -0.00159   0.00234   0.00029
  85        8D-1       -0.00109  -0.00050  -0.00525  -0.00040  -0.01107
  86        8D+2        0.01567  -0.01187  -0.01043  -0.01493   0.00687
  87        8D-2       -0.00386  -0.01631  -0.00593  -0.00251   0.00056
  88        9D 0        0.00565   0.00503  -0.01217   0.00619   0.00223
  89        9D+1       -0.00008  -0.00044   0.00025   0.00078   0.00090
  90        9D-1       -0.00065  -0.00068  -0.00236  -0.00009  -0.00384
  91        9D+2       -0.02441   0.00409  -0.02009   0.09693  -0.03916
  92        9D-2       -0.01988   0.03349  -0.01386  -0.03501   0.01072
  93 5   C  1S          0.03652   0.10876  -0.03093   0.10613   0.00570
  94        2S          0.03262  -0.04702   0.12841  -0.19764  -0.02518
  95        3S          0.12040  -0.08979   0.13464  -0.32031   0.08174
  96        4S          0.50606   0.64311  -0.01376   0.56186  -0.20752
  97        5PX        -0.29079   0.02914   0.13713   0.09523  -0.02199
  98        5PY        -0.12310  -0.02342  -0.08807  -0.04287  -0.00655
  99        5PZ        -0.01229  -0.04495   0.01747   0.04714   0.11705
 100        6PX        -0.00229   0.00139  -0.03612   0.22049  -0.06649
 101        6PY         0.09834   0.09231   0.00662   0.04349  -0.02603
 102        6PZ        -0.00916  -0.02654   0.00055   0.02465   0.04913
 103        7PX        -0.08465  -0.22773  -0.01610  -0.18732   0.07624
 104        7PY        -0.00544  -0.04410   0.00979   0.01612  -0.00507
 105        7PZ        -0.00213  -0.00379  -0.00412   0.00221  -0.00142
 106        8D 0       -0.00016  -0.00245  -0.00539   0.00344   0.00412
 107        8D+1        0.00041   0.00087  -0.00091   0.00055  -0.00596
 108        8D-1       -0.00055   0.00077  -0.00323  -0.00274  -0.00648
 109        8D+2        0.02687   0.00289  -0.00302   0.00303  -0.00253
 110        8D-2       -0.00921  -0.01129  -0.01007  -0.00238   0.00245
 111        9D 0        0.00456  -0.00533   0.00211  -0.00487   0.00525
 112        9D+1       -0.00011   0.00001  -0.00100   0.00009  -0.00264
 113        9D-1       -0.00046  -0.00016  -0.00167  -0.00082  -0.00223
 114        9D+2       -0.06123   0.00516   0.05386  -0.05992   0.00151
 115        9D-2        0.02794   0.00974  -0.00294   0.02187   0.01381
 116 6   C  1S          0.02690   0.04809  -0.14019  -0.01181   0.02096
 117        2S          0.04169   0.11900   0.16162  -0.06767  -0.07105
 118        3S         -0.03591   0.08958   0.25345  -0.02064  -0.01462
 119        4S         -0.48284  -0.78220  -0.14095  -0.43404   0.19172
 120        5PX         0.27612   0.09599   0.00081   0.12728  -0.06623
 121        5PY         0.08516  -0.01236   0.15572   0.08966  -0.03336
 122        5PZ         0.00867  -0.02104   0.06033   0.06143   0.12675
 123        6PX        -0.15493  -0.12942  -0.08547  -0.06081   0.05397
 124        6PY        -0.00113   0.03997  -0.02563  -0.03730   0.01229
 125        6PZ         0.00329  -0.01193   0.02603   0.03243   0.05494
 126        7PX         0.05309   0.11184   0.00022   0.06374  -0.02581
 127        7PY         0.04680   0.20659   0.05876   0.13335  -0.05847
 128        7PZ        -0.00020  -0.00149   0.00000   0.00322  -0.00023
 129        8D 0       -0.00157  -0.00185  -0.00284   0.00532   0.00280
 130        8D+1       -0.00096   0.00063  -0.00526  -0.00304  -0.01072
 131        8D-1       -0.00211  -0.00278  -0.00487   0.00007  -0.00347
 132        8D+2        0.02668   0.00685  -0.00107   0.01179  -0.00829
 133        8D-2       -0.01348   0.00324  -0.01045  -0.00065  -0.00171
 134        9D 0       -0.00824   0.00861   0.00488   0.00009   0.00090
 135        9D+1       -0.00032  -0.00028  -0.00117   0.00009  -0.00237
 136        9D-1       -0.00055  -0.00091  -0.00087   0.00035   0.00021
 137        9D+2       -0.04348  -0.03158  -0.03088  -0.03457   0.00627
 138        9D-2        0.04521  -0.00472   0.03535   0.03773  -0.00989
 139 7   H  1S          0.10638  -0.33968  -0.04504  -0.09558   0.02020
 140        2S          0.15890  -0.52388  -0.17981  -0.12340   0.08583
 141        3S          0.02377   0.01258  -0.01404   0.01934  -0.00472
 142        4PX         0.00281  -0.01996   0.00433  -0.00523  -0.00147
 143        4PY        -0.00035  -0.00150  -0.00365   0.00299   0.00030
 144        4PZ         0.00075   0.00036   0.00377   0.00012   0.00822
 145        5PX         0.04270  -0.10559  -0.05244  -0.03034   0.02205
 146        5PY        -0.00027   0.00685   0.01693  -0.00516  -0.00452
 147        5PZ         0.00027   0.00020   0.00139  -0.00026   0.00329
 148 8   H  1S         -0.11670   0.11144   0.03550   0.06960  -0.06476
 149        2S         -0.15097   0.27322   0.07109   0.17267  -0.08511
 150        3S         -0.02384  -0.02896   0.01379  -0.02394   0.00601
 151        4PX         0.00421   0.00200  -0.00078  -0.00294  -0.00150
 152        4PY         0.00423  -0.00284  -0.00034  -0.00361   0.00394
 153        4PZ        -0.00024  -0.00105   0.00134   0.00061   0.00584
 154        5PX        -0.01580   0.02634   0.00872   0.04524  -0.01770
 155        5PY         0.02391  -0.05793  -0.02307  -0.01860   0.01149
 156        5PZ        -0.00019  -0.00080   0.00103   0.00032   0.00466
 157 9   H  1S         -0.22048  -0.04108   0.05434  -0.10421  -0.02715
 158        2S         -0.40645  -0.12406   0.01832  -0.19758   0.02449
 159        3S         -0.00379   0.03298  -0.01034   0.02184  -0.00986
 160        4PX        -0.00178   0.00264  -0.00002   0.00669   0.00085
 161        4PY         0.00756   0.00147  -0.00727   0.00752   0.00165
 162        4PZ        -0.00047  -0.00162   0.00044   0.00165   0.00382
 163        5PX         0.04924   0.01629  -0.01159   0.01914  -0.00270
 164        5PY         0.07482   0.02585   0.01001   0.03600  -0.00842
 165        5PZ        -0.00042  -0.00137   0.00012   0.00139   0.00256
 166 10  H  1S          0.28231   0.14301   0.08659   0.07582  -0.10728
 167        2S          0.48350   0.25518   0.08081   0.20083  -0.12906
 168        3S          0.01139  -0.02941   0.00611  -0.00685  -0.00060
 169        4PX        -0.01045  -0.00896  -0.00860   0.00059   0.00584
 170        4PY         0.00203  -0.00030   0.00399   0.00226  -0.00066
 171        4PZ         0.00028  -0.00076   0.00200   0.00216   0.00421
 172        5PX        -0.11408  -0.05291  -0.00796  -0.04271   0.02488
 173        5PY        -0.01146  -0.00133  -0.01307  -0.00870   0.00294
 174        5PZ        -0.00004  -0.00051   0.00026   0.00103   0.00076
                           6         7         8         9        10
     Eigenvalues --     2.00000   2.00000   2.00000   2.00000   2.00000
   1 1   C  1S          0.18587   0.08724  -0.18670  -0.15193   0.36298
   2        2S          0.10829   0.16818  -0.05852   0.07475   0.08172
   3        3S          0.18870   0.15150  -0.05200   0.18694   0.02672
   4        4S          0.01814  -0.09853  -0.16368  -0.03142  -0.06591
   5        5PX         0.04814  -0.18043  -0.14987   0.04049  -0.00247
   6        5PY         0.03746  -0.03994   0.01670   0.05776   0.00457
   7        5PZ         0.14522  -0.02789   0.04248  -0.06955  -0.01484
   8        6PX         0.02809   0.06144   0.01934  -0.00811   0.04705
   9        6PY         0.03545   0.00785   0.05700   0.00976  -0.01152
  10        6PZ         0.07724  -0.02352   0.02311  -0.04119  -0.01007
  11        7PX         0.02666   0.00125  -0.08548  -0.03785  -0.02215
  12        7PY         0.01592  -0.02267  -0.06592  -0.00630  -0.03793
  13        7PZ         0.01176  -0.00488   0.00641  -0.00756  -0.00113
  14        8D 0       -0.00096  -0.00335   0.00137  -0.00132  -0.00221
  15        8D+1       -0.01371  -0.00508  -0.01416   0.00532  -0.00320
  16        8D-1       -0.00360  -0.00203  -0.00829   0.00214  -0.00218
  17        8D+2        0.00781   0.01199   0.00390   0.00687  -0.00668
  18        8D-2        0.00344   0.00025  -0.01200   0.00077  -0.00186
  19        9D 0        0.00322   0.00474   0.00341  -0.00440   0.00051
  20        9D+1       -0.00129  -0.00067  -0.00155   0.00045  -0.00041
  21        9D-1       -0.00268  -0.00033  -0.00365   0.00155  -0.00068
  22        9D+2       -0.00432  -0.00890  -0.01599   0.00554  -0.00195
  23        9D-2        0.01333   0.03686   0.00546   0.02399  -0.00097
  24 2   C  1S          0.21195  -0.20682  -0.08133   0.40754   0.13643
  25        2S          0.03919   0.05346   0.03371   0.00995   0.02068
  26        3S          0.04210   0.03150   0.11365  -0.06081  -0.02037
  27        4S         -0.08113   0.03802   0.09333  -0.06048   0.05507
  28        5PX         0.00850   0.27247   0.08685   0.04942   0.04404
  29        5PY         0.01601  -0.02683   0.08697   0.07928  -0.00263
  30        5PZ         0.20308   0.05441   0.15441  -0.07555   0.02787
  31        6PX        -0.02705   0.04299   0.02099  -0.03148   0.01620
  32        6PY         0.04636  -0.00186   0.04456   0.08501  -0.04410
  33        6PZ         0.11395   0.02870   0.09415  -0.04503   0.01707
  34        7PX         0.01964  -0.01490  -0.05483  -0.00592  -0.02626
  35        7PY        -0.02893   0.01392   0.07783   0.00527   0.01956
  36        7PZ         0.01608   0.00135   0.01482  -0.00797   0.00208
  37        8D 0       -0.00089  -0.00476  -0.00185  -0.00142  -0.00254
  38        8D+1        0.00601  -0.00589  -0.00074  -0.00452  -0.00249
  39        8D-1        0.00235   0.00642   0.00321   0.00151   0.00220
  40        8D+2        0.00743   0.00603  -0.00129   0.00088  -0.00648
  41        8D-2        0.00107   0.00303   0.00145   0.00558   0.00360
  42        9D 0        0.00486   0.00427   0.00253   0.01059  -0.00254
  43        9D+1        0.00023  -0.00079  -0.00046  -0.00035  -0.00035
  44        9D-1       -0.00095   0.00207  -0.00035   0.00136   0.00058
  45        9D+2       -0.01525   0.00348   0.00386  -0.01627   0.00917
  46        9D-2        0.00108  -0.01226  -0.01530   0.01545   0.00228
  47 3   C  1S         -0.15692  -0.08067   0.11243  -0.07315  -0.00594
  48        2S         -0.03871   0.08818   0.03504  -0.07485  -0.04568
  49        3S         -0.08964   0.18018   0.12502  -0.02413  -0.01510
  50        4S          0.17262  -0.08489  -0.33917   0.04246   0.05866
  51        5PX        -0.05854  -0.00803   0.05488   0.09483   0.19233
  52        5PY        -0.08231   0.23482   0.00738  -0.03535   0.09047
  53        5PZ         0.05557   0.14060   0.08149   0.02917   0.05062
  54        6PX        -0.02155   0.16404   0.06340  -0.03766  -0.04629
  55        6PY        -0.03560   0.13124   0.14648   0.02965  -0.03525
  56        6PZ         0.03238   0.07780   0.05166   0.01414   0.02948
  57        7PX         0.03637  -0.00333  -0.07066  -0.03272  -0.01238
  58        7PY        -0.00613   0.01503   0.01812   0.01624   0.04440
  59        7PZ         0.00545   0.00941   0.00998   0.00034   0.00432
  60        8D 0       -0.00043  -0.00470   0.00014   0.00310  -0.00041
  61        8D+1        0.00223   0.00554   0.00137   0.00157   0.00153
  62        8D-1       -0.01496   0.00289  -0.01183   0.00891  -0.00035
  63        8D+2       -0.00053   0.00582   0.01180   0.01030   0.00123
  64        8D-2       -0.00540   0.00490  -0.00546  -0.00230   0.00939
  65        9D 0       -0.00468  -0.00861   0.00105  -0.00716  -0.00528
  66        9D+1       -0.00049  -0.00103  -0.00175   0.00009  -0.00067
  67        9D-1       -0.00443   0.00143  -0.00365   0.00295   0.00001
  68        9D+2        0.00647   0.03035  -0.00873   0.01193   0.03486
  69        9D-2        0.02055  -0.00703   0.02806   0.00798  -0.04901
  70 4   C  1S          0.11457  -0.13328  -0.04043  -0.07101   0.12016
  71        2S          0.06657   0.07378  -0.17287  -0.09537   0.09993
  72        3S          0.05829  -0.02745  -0.21836  -0.09281   0.27286
  73        4S         -0.27721   0.16795   0.54929   0.30513   0.05798
  74        5PX         0.03317  -0.16387   0.00746   0.13563   0.11430
  75        5PY         0.18880  -0.10547  -0.17210  -0.08610  -0.19109
  76        5PZ        -0.15454   0.12186  -0.12706   0.13629   0.01931
  77        6PX         0.07925  -0.01195  -0.03600  -0.11163  -0.04429
  78        6PY        -0.01022   0.07414   0.11551   0.02303  -0.07603
  79        6PZ        -0.09152   0.06880  -0.07016   0.07799   0.01183
  80        7PX        -0.02326   0.01953   0.07962   0.10246   0.04775
  81        7PY         0.00362  -0.00891  -0.01576   0.04898   0.03281
  82        7PZ        -0.01352   0.00853  -0.00836   0.01030   0.00184
  83        8D 0       -0.00150  -0.00342   0.00293   0.00225  -0.00259
  84        8D+1       -0.01220  -0.00236  -0.01487   0.00627  -0.00285
  85        8D-1       -0.00298  -0.00596  -0.00370  -0.00099  -0.00213
  86        8D+2       -0.00040  -0.00003  -0.00263   0.00221   0.00432
  87        8D-2        0.00018   0.01562   0.00804   0.00969   0.00053
  88        9D 0        0.00446   0.00179  -0.00393   0.00496   0.00514
  89        9D+1       -0.00216  -0.00093  -0.00343   0.00108  -0.00083
  90        9D-1       -0.00359  -0.00150  -0.00343   0.00131  -0.00081
  91        9D+2        0.03173   0.08083  -0.03260  -0.07542  -0.05160
  92        9D-2        0.05354  -0.03888  -0.09937  -0.05615  -0.01754
  93 5   C  1S          0.07893  -0.01305  -0.09735  -0.14681   0.16910
  94        2S         -0.03814   0.03917  -0.06111  -0.00354   0.11477
  95        3S         -0.14937  -0.19895  -0.02070   0.03988   0.26517
  96        4S          0.10837  -0.14902  -0.35448  -0.25555  -0.19764
  97        5PX        -0.10177   0.13645   0.06747  -0.06511  -0.11045
  98        5PY         0.19005   0.13217   0.01658   0.18751  -0.11331
  99        5PZ        -0.22231   0.02563  -0.25796   0.14338  -0.03058
 100        6PX         0.04449   0.04671  -0.05770  -0.16723   0.00517
 101        6PY        -0.00486   0.01661   0.04641   0.03990  -0.10654
 102        6PZ        -0.13292   0.00999  -0.15021   0.08229  -0.01865
 103        7PX        -0.08736   0.04438   0.14473   0.10319   0.02891
 104        7PY        -0.00061  -0.01811   0.00791  -0.04491   0.02762
 105        7PZ        -0.01993  -0.00065  -0.02076   0.01089  -0.00292
 106        8D 0       -0.00083  -0.00310   0.00392  -0.00077  -0.00265
 107        8D+1        0.00520  -0.00758   0.00136  -0.00554  -0.00231
 108        8D-1        0.00269   0.00211   0.00727  -0.00156   0.00205
 109        8D+2        0.00179  -0.00102  -0.00472  -0.00177   0.00109
 110        8D-2        0.00103   0.00952   0.01116   0.01262   0.00879
 111        9D 0       -0.00371  -0.00919   0.00112  -0.00668   0.00283
 112        9D+1        0.00004  -0.00219  -0.00075  -0.00087  -0.00077
 113        9D-1       -0.00158   0.00127   0.00037   0.00099   0.00063
 114        9D+2       -0.03373   0.05719   0.03782   0.03411  -0.04252
 115        9D-2       -0.03836  -0.04944  -0.00834  -0.05711  -0.00706
 116 6   C  1S         -0.11934   0.06517  -0.05981  -0.32870   0.07165
 117        2S         -0.03570   0.04108  -0.10537   0.00898  -0.05525
 118        3S         -0.15203  -0.11298  -0.06735  -0.06460  -0.08777
 119        4S         -0.01472   0.06169   0.24204  -0.00029   0.23774
 120        5PX         0.05621   0.10668   0.02516   0.11329  -0.20334
 121        5PY        -0.20133   0.01717   0.06266  -0.18120   0.01763
 122        5PZ        -0.08102  -0.05363  -0.18265   0.04338  -0.05017
 123        6PX         0.04824  -0.04271   0.01040   0.00589   0.10275
 124        6PY        -0.04370   0.04262   0.04875  -0.02940  -0.04788
 125        6PZ        -0.04728  -0.03557  -0.10247   0.02234  -0.02931
 126        7PX         0.01938  -0.02639  -0.05738  -0.02299  -0.01887
 127        7PY         0.03162  -0.01800  -0.08639  -0.05783  -0.00566
 128        7PZ        -0.00628  -0.00720  -0.01266   0.00159  -0.00432
 129        8D 0        0.00025  -0.00495   0.00125  -0.00274  -0.00107
 130        8D+1        0.00175   0.00014   0.00635  -0.00198   0.00142
 131        8D-1       -0.01537   0.00230  -0.01264   0.00896  -0.00066
 132        8D+2        0.00114  -0.00153   0.00383   0.00111  -0.00383
 133        8D-2        0.01316   0.00825   0.00128   0.01141  -0.00496
 134        9D 0       -0.00159  -0.00454  -0.00574   0.00117  -0.00432
 135        9D+1       -0.00138  -0.00155  -0.00182   0.00014  -0.00071
 136        9D-1       -0.00488   0.00083  -0.00449   0.00298  -0.00031
 137        9D+2        0.00221   0.03122   0.02111  -0.01034   0.04035
 138        9D-2       -0.03668  -0.02226  -0.00638  -0.03678   0.03101
 139 7   H  1S          0.02976   0.06460  -0.00810  -0.09982  -0.17528
 140        2S          0.00226   0.11220   0.08019  -0.06956  -0.18503
 141        3S          0.01438   0.00531  -0.02198  -0.00651  -0.01228
 142        4PX         0.00064   0.00504  -0.00142  -0.00786  -0.00927
 143        4PY        -0.00182   0.00460  -0.00018  -0.00046   0.00194
 144        4PZ         0.00202   0.00501   0.00305   0.00100   0.00184
 145        5PX        -0.00078   0.03381   0.02068  -0.00747  -0.02961
 146        5PY         0.00779  -0.01463   0.00541   0.00628  -0.01457
 147        5PZ         0.00091   0.00283   0.00204   0.00057   0.00115
 148 8   H  1S          0.15142   0.01014  -0.22290  -0.18068  -0.12926
 149        2S          0.20312  -0.11059  -0.35315  -0.32303  -0.15803
 150        3S          0.00008  -0.00039   0.00794  -0.00860  -0.02079
 151        4PX         0.00595  -0.00085  -0.00800  -0.00275  -0.00171
 152        4PY        -0.00548  -0.00562   0.01079   0.00838   0.00192
 153        4PZ        -0.00552   0.00434  -0.00441   0.00484   0.00072
 154        5PX         0.00996   0.00993  -0.02682  -0.04541  -0.02229
 155        5PY        -0.03319   0.04327   0.06332   0.05321   0.01736
 156        5PZ        -0.00421   0.00383  -0.00295   0.00384   0.00079
 157 9   H  1S          0.07343   0.18333   0.02220   0.12987  -0.05098
 158        2S          0.07376   0.24468   0.10597   0.25739   0.00851
 159        3S          0.02179   0.01971  -0.01702   0.00840  -0.02006
 160        4PX        -0.00401  -0.00350   0.00155  -0.00447  -0.00019
 161        4PY         0.00037  -0.00686   0.00137  -0.00175   0.00020
 162        4PZ        -0.00802   0.00079  -0.00925   0.00510  -0.00112
 163        5PX         0.01232  -0.03785  -0.02421  -0.02245   0.00462
 164        5PY        -0.02012  -0.03537  -0.01485  -0.04954  -0.01681
 165        5PZ        -0.00676   0.00019  -0.00793   0.00410  -0.00110
 166 10  H  1S          0.03087   0.10903  -0.02348   0.11360  -0.19503
 167        2S          0.00921   0.07744  -0.02227   0.08752  -0.25561
 168        3S         -0.00156   0.00398   0.01223   0.00461  -0.01079
 169        4PX        -0.00086  -0.00680   0.00466  -0.00613   0.00991
 170        4PY        -0.00437  -0.00056   0.00062  -0.00440   0.00015
 171        4PZ        -0.00294  -0.00204  -0.00654   0.00151  -0.00182
 172        5PX        -0.00035  -0.01923   0.00276  -0.00992   0.04749
 173        5PY         0.01694  -0.00077  -0.00178   0.01468  -0.00894
 174        5PZ        -0.00222  -0.00165  -0.00402   0.00087  -0.00116
                          11        12        13        14        15
     Eigenvalues --     2.00000   2.00000   2.00000   2.00000   2.00000
   1 1   C  1S          0.04136   0.12274  -0.34236   0.08731  -0.00627
   2        2S         -0.03658   0.04151   0.06157  -0.00834  -0.08671
   3        3S         -0.05567  -0.00049   0.14270  -0.02425  -0.19667
   4        4S         -0.02654  -0.02326   0.05513  -0.15391   0.16169
   5        5PX         0.23149   0.10929  -0.05217  -0.18423   0.12453
   6        5PY         0.19415  -0.17962   0.05713   0.04511  -0.22054
   7        5PZ         0.02849   0.14112   0.22381   0.11038  -0.04543
   8        6PX        -0.02107   0.04816  -0.03225   0.06542  -0.00316
   9        6PY         0.06203  -0.09294  -0.01193   0.11517  -0.18656
  10        6PZ         0.01493   0.08624   0.12367   0.06182  -0.02540
  11        7PX        -0.02200  -0.03602  -0.01542   0.01576   0.14940
  12        7PY         0.01066  -0.05333  -0.00110  -0.00236   0.08965
  13        7PZ         0.00233   0.01258   0.01416   0.00596  -0.00275
  14        8D 0        0.00120   0.00100  -0.00166   0.00032   0.00441
  15        8D+1       -0.00331   0.00475   0.00301   0.00694  -0.00155
  16        8D-1       -0.00107   0.00569   0.00986   0.00842  -0.00258
  17        8D+2       -0.00980  -0.00404  -0.00059   0.01353   0.00448
  18        8D-2        0.00041   0.01307  -0.00139  -0.01616   0.00422
  19        9D 0       -0.00590  -0.00396  -0.00319   0.00765  -0.00918
  20        9D+1       -0.00035   0.00092   0.00086   0.00106  -0.00028
  21        9D-1       -0.00066   0.00077   0.00188   0.00231  -0.00061
  22        9D+2        0.00729  -0.00081   0.02223  -0.03556   0.01766
  23        9D-2       -0.01366  -0.00864   0.02076   0.01242  -0.00266
  24 2   C  1S         -0.06896  -0.00015   0.14540  -0.17378  -0.07507
  25        2S         -0.22283  -0.02708  -0.02748   0.14209   0.05613
  26        3S         -0.36202  -0.06771  -0.16942   0.34426   0.07750
  27        4S          0.00417   0.17242  -0.10008   0.03148   0.02157
  28        5PX        -0.08066  -0.05654   0.14114   0.06484  -0.22067
  29        5PY         0.16155  -0.19447   0.02749   0.14993  -0.09876
  30        5PZ         0.04625  -0.00005   0.07336  -0.01746  -0.00536
  31        6PX         0.11961   0.02495  -0.01493   0.00203  -0.03697
  32        6PY         0.02167  -0.15628   0.04032   0.09448  -0.06495
  33        6PZ         0.02617  -0.00339   0.02815  -0.01937   0.00009
  34        7PX         0.03024  -0.07268  -0.00767   0.03025   0.10132
  35        7PY         0.01394   0.04579  -0.00056  -0.00119  -0.10418
  36        7PZ         0.00369   0.00193   0.00280  -0.00366   0.00026
  37        8D 0        0.00054   0.00176  -0.00228  -0.00381   0.00053
  38        8D+1        0.00095   0.01405   0.01703   0.01009  -0.00379
  39        8D-1        0.00076  -0.00879  -0.00556  -0.00470   0.00153
  40        8D+2       -0.01119  -0.00088  -0.00037   0.00218  -0.01587
  41        8D-2        0.00867  -0.00915   0.00780  -0.00011  -0.01717
  42        9D 0       -0.00365  -0.00380   0.00349   0.00321  -0.00608
  43        9D+1       -0.00002   0.00166   0.00187   0.00125  -0.00044
  44        9D-1       -0.00013  -0.00340  -0.00256  -0.00147   0.00059
  45        9D+2        0.01353   0.02040  -0.01474   0.00520   0.01592
  46        9D-2        0.04185   0.00547   0.00718  -0.02648   0.02604
  47 3   C  1S         -0.16169  -0.34056   0.31181   0.00837  -0.06163
  48        2S          0.09851  -0.04771   0.04395   0.02734   0.10104
  49        3S          0.25194   0.04884   0.01790   0.03991   0.22576
  50        4S         -0.03939  -0.17917   0.07250  -0.05411   0.19720
  51        5PX         0.03708  -0.01178   0.04177   0.07693   0.18895
  52        5PY         0.08373   0.08468   0.16180  -0.12932   0.04332
  53        5PZ         0.01783  -0.19729  -0.13490  -0.11384   0.03695
  54        6PX         0.04276   0.04480   0.01921   0.02152  -0.00627
  55        6PY        -0.04809  -0.03492   0.02085   0.11034  -0.00607
  56        6PZ         0.01046  -0.11265  -0.08382  -0.07024   0.02273
  57        7PX        -0.00431  -0.04636   0.02621  -0.02546   0.03268
  58        7PY        -0.01674   0.08403  -0.00144  -0.03358  -0.07163
  59        7PZ         0.00168  -0.01510  -0.01420  -0.01201   0.00380
  60        8D 0        0.00009   0.00469  -0.00340  -0.00322  -0.00286
  61        8D+1        0.00064  -0.00632  -0.00176  -0.00191   0.00062
  62        8D-1       -0.00323  -0.00880  -0.00896  -0.00110   0.00133
  63        8D+2        0.00817  -0.00579   0.00338   0.00823  -0.02097
  64        8D-2        0.01087   0.00916   0.00868  -0.01425   0.01184
  65        9D 0        0.00348  -0.00137  -0.00205  -0.00300   0.00697
  66        9D+1       -0.00017   0.00233   0.00308   0.00239  -0.00078
  67        9D-1       -0.00094  -0.00328  -0.00280  -0.00040   0.00043
  68        9D+2       -0.04009  -0.00065   0.01566   0.02131   0.01010
  69        9D-2       -0.03577  -0.04063  -0.02695   0.05936  -0.01162
  70 4   C  1S         -0.16766  -0.02090  -0.23524   0.11041  -0.36505
  71        2S          0.05644  -0.08227   0.13427  -0.03661   0.19656
  72        3S          0.19219  -0.13592   0.25151  -0.06043   0.49050
  73        4S          0.07447   0.39808  -0.20263   0.17021  -0.37348
  74        5PX         0.03740  -0.01946  -0.05110   0.08131  -0.02750
  75        5PY        -0.13647  -0.13136  -0.06690   0.02835  -0.08635
  76        5PZ        -0.03090  -0.20956  -0.14284  -0.04506   0.02677
  77        6PX         0.05329  -0.21683   0.08087   0.09675   0.23207
  78        6PY         0.01024  -0.00243  -0.03351   0.07708  -0.09973
  79        6PZ        -0.01820  -0.12341  -0.09187  -0.03210   0.01749
  80        7PX        -0.01017   0.14072  -0.05667   0.01002  -0.13841
  81        7PY         0.01784   0.02610   0.00530  -0.03225  -0.04521
  82        7PZ        -0.00263  -0.01760  -0.01633  -0.00680   0.00325
  83        8D 0       -0.00311   0.00369  -0.00329  -0.00190  -0.00247
  84        8D+1       -0.00297   0.00313   0.00561   0.00838  -0.00205
  85        8D-1       -0.00089   0.00795   0.00494   0.00448  -0.00141
  86        8D+2        0.00028   0.00755  -0.00033  -0.00448  -0.00495
  87        8D-2        0.01076   0.00814   0.00159   0.00508   0.00742
  88        9D 0        0.00372   0.00328   0.00202  -0.00215   0.00680
  89        9D+1       -0.00059   0.00174   0.00269   0.00272  -0.00079
  90        9D-1       -0.00082   0.00137   0.00047   0.00161  -0.00034
  91        9D+2       -0.00682  -0.05491   0.04879   0.00842   0.07430
  92        9D-2       -0.03304  -0.02921   0.00404  -0.03438  -0.01469
  93 5   C  1S         -0.10586  -0.16205   0.03067  -0.10587  -0.33805
  94        2S         -0.02318   0.09824  -0.01635  -0.02805  -0.02256
  95        3S         -0.04758   0.21474  -0.11114  -0.03531   0.01219
  96        4S          0.07283  -0.38640   0.20297  -0.23080   0.19362
  97        5PX        -0.09690   0.13683  -0.05724  -0.06319  -0.09721
  98        5PY         0.03775  -0.00751  -0.04470   0.18737   0.07186
  99        5PZ        -0.05165  -0.04444   0.03304   0.10442  -0.02007
 100        6PX        -0.01056  -0.16250   0.11214   0.07256   0.32252
 101        6PY        -0.04608  -0.03739   0.00565  -0.04282  -0.15203
 102        6PZ        -0.03086  -0.02256   0.01565   0.05925  -0.01108
 103        7PX         0.01927   0.14510  -0.04542  -0.01505  -0.20736
 104        7PY        -0.01462  -0.04233   0.00632   0.04152   0.05571
 105        7PZ        -0.00464  -0.00200   0.00033   0.00733  -0.00120
 106        8D 0       -0.00307   0.00101  -0.00255   0.00152   0.00206
 107        8D+1        0.00082   0.01394   0.01257   0.00707  -0.00279
 108        8D-1        0.00086  -0.00588  -0.00981  -0.00804   0.00251
 109        8D+2       -0.00253  -0.00372   0.00256   0.00237   0.01594
 110        8D-2        0.00925   0.00335   0.00234   0.01148   0.00664
 111        9D 0       -0.01252   0.00218  -0.00548  -0.00103  -0.00186
 112        9D+1       -0.00010   0.00346   0.00286   0.00200  -0.00070
 113        9D-1       -0.00028  -0.00356  -0.00468  -0.00283   0.00105
 114        9D+2       -0.05926   0.08419  -0.03896  -0.02609  -0.11148
 115        9D-2       -0.00634  -0.01416   0.00725  -0.07144  -0.09133
 116 6   C  1S          0.32512   0.02421  -0.27451   0.57171  -0.00779
 117        2S          0.13172   0.07014  -0.00263  -0.16477  -0.14944
 118        3S          0.00811   0.11220  -0.01434  -0.40327  -0.33716
 119        4S         -0.09408   0.06538  -0.00612   0.20355  -0.12755
 120        5PX        -0.00627   0.01314  -0.04966   0.06394   0.09885
 121        5PY        -0.19859   0.07584  -0.03267  -0.04934  -0.01966
 122        5PZ        -0.02410   0.13583   0.22006   0.18780  -0.05759
 123        6PX         0.08971  -0.02813  -0.00525   0.11596   0.09615
 124        6PY        -0.08546   0.00489   0.00235  -0.05204  -0.25615
 125        6PZ        -0.01403   0.08162   0.12326   0.10571  -0.03237
 126        7PX         0.02498  -0.04428   0.02419  -0.02830   0.04296
 127        7PY        -0.03988  -0.04679  -0.00263   0.01912   0.16649
 128        7PZ        -0.00188   0.01348   0.01622   0.01384  -0.00432
 129        8D 0       -0.00187  -0.00165  -0.00161   0.00157   0.00640
 130        8D+1        0.00059  -0.00343  -0.00863  -0.00692   0.00215
 131        8D-1       -0.00335  -0.00780  -0.00789  -0.00018   0.00104
 132        8D+2        0.00113  -0.01754   0.00408   0.00884  -0.00822
 133        8D-2        0.00713  -0.00893   0.00473   0.00779  -0.00896
 134        9D 0        0.01458   0.00641  -0.00432  -0.00584   0.00252
 135        9D+1       -0.00038   0.00224   0.00177   0.00174  -0.00054
 136        9D-1       -0.00110  -0.00220  -0.00165   0.00057   0.00014
 137        9D+2       -0.05272  -0.01397   0.03028   0.03398   0.00983
 138        9D-2       -0.01577   0.00936   0.00009  -0.00456   0.08122
 139 7   H  1S          0.04215  -0.03315  -0.00687  -0.02552  -0.13043
 140        2S          0.05625   0.01152  -0.00732  -0.01688  -0.21586
 141        3S          0.01185  -0.00939   0.00381  -0.00947  -0.00649
 142        4PX         0.00319  -0.00051  -0.00059  -0.00159  -0.00001
 143        4PY         0.00292   0.00230   0.00343  -0.00340   0.00157
 144        4PZ         0.00065  -0.00710  -0.00500  -0.00421   0.00136
 145        5PX         0.00090   0.01199   0.00116  -0.00217  -0.04671
 146        5PY        -0.00508  -0.01156  -0.01439   0.01707  -0.00716
 147        5PZ         0.00034  -0.00446  -0.00385  -0.00305   0.00100
 148 8   H  1S         -0.08813  -0.14900   0.04791  -0.03279   0.05515
 149        2S         -0.17040  -0.26721   0.06222  -0.06937   0.12437
 150        3S         -0.02125   0.00589  -0.01621   0.00892  -0.01843
 151        4PX        -0.00111  -0.00479   0.00199  -0.00013   0.00278
 152        4PY         0.00061   0.00487  -0.00622   0.00315  -0.00919
 153        4PZ        -0.00110  -0.00755  -0.00531  -0.00176   0.00100
 154        5PX        -0.01815  -0.02965   0.01684  -0.01094   0.01991
 155        5PY         0.03482   0.04766  -0.00269   0.01101  -0.01823
 156        5PZ        -0.00080  -0.00672  -0.00509  -0.00209   0.00100
 157 9   H  1S          0.00170   0.10727  -0.05636   0.10559   0.00387
 158        2S          0.04525   0.22181  -0.10003   0.17094  -0.00404
 159        3S          0.01043  -0.00633   0.00627  -0.00029   0.01445
 160        4PX        -0.00103  -0.00123   0.00090  -0.00446  -0.00269
 161        4PY         0.00277  -0.00779   0.00310  -0.00076   0.00035
 162        4PZ        -0.00186  -0.00147   0.00118   0.00375  -0.00072
 163        5PX         0.00471  -0.04032   0.01333  -0.00256   0.02987
 164        5PY        -0.02367  -0.03191   0.01196  -0.03585  -0.01368
 165        5PZ        -0.00157  -0.00049   0.00159   0.00357  -0.00076
 166 10  H  1S          0.06986   0.01537  -0.02321  -0.03155  -0.02942
 167        2S          0.01351  -0.01584  -0.04479  -0.03791  -0.03682
 168        3S         -0.00688   0.00123  -0.00718   0.00943  -0.00828
 169        4PX        -0.00553  -0.00502   0.00041   0.00878   0.00336
 170        4PY        -0.00365   0.00171  -0.00105  -0.00166   0.00038
 171        4PZ        -0.00087   0.00498   0.00788   0.00674  -0.00207
 172        5PX         0.01708   0.00488   0.00685   0.00269   0.00104
 173        5PY         0.01601  -0.00952   0.00174   0.00373  -0.01391
 174        5PZ        -0.00063   0.00318   0.00429   0.00387  -0.00116
                          16        17        18        19        20
     Eigenvalues --     2.00000   2.00000   2.00000   2.00000   2.00000
   1 1   C  1S         -0.14521   0.61076   0.28667   0.05919  -0.19228
   2        2S         -0.01119  -0.02910   0.03640  -0.19549  -0.00805
   3        3S          0.07839  -0.17244   0.02875  -0.33072   0.01591
   4        4S          0.07882  -0.11835   0.06729  -0.08765  -0.03157
   5        5PX         0.16246   0.03811   0.01293  -0.04166  -0.01514
   6        5PY        -0.13410   0.03253  -0.02563  -0.02582  -0.02333
   7        5PZ         0.00316   0.00001  -0.00033  -0.00034  -0.01029
   8        6PX         0.01539   0.01234  -0.03650  -0.07831   0.03924
   9        6PY        -0.08072  -0.00391  -0.03711  -0.03876   0.03165
  10        6PZ         0.00150   0.00446  -0.00109  -0.00007  -0.00525
  11        7PX         0.02232  -0.00069   0.01014  -0.04573   0.01575
  12        7PY         0.00951  -0.00721   0.02319  -0.05903   0.00368
  13        7PZ         0.00016   0.00102   0.00010   0.00043  -0.00051
  14        8D 0        0.00268  -0.00024  -0.00093   0.00694   0.00069
  15        8D+1       -0.00031   0.00509  -0.00225  -0.00149   0.00022
  16        8D-1       -0.00003   0.00219  -0.00131  -0.00108  -0.00034
  17        8D+2        0.00266   0.00295  -0.00112  -0.00552   0.00240
  18        8D-2        0.00884  -0.00157   0.00520  -0.00667  -0.00253
  19        9D 0       -0.00815   0.00646   0.00092   0.00108  -0.00067
  20        9D+1       -0.00003   0.00061  -0.00027  -0.00017   0.00000
  21        9D-1       -0.00004   0.00076  -0.00049  -0.00043  -0.00005
  22        9D+2        0.00222  -0.00805   0.00380   0.00355  -0.01401
  23        9D-2        0.00609  -0.00790  -0.00480  -0.02154   0.00262
  24 2   C  1S          0.15878  -0.34409   0.46601   0.14805   0.08481
  25        2S         -0.01875  -0.00969   0.02550  -0.17015   0.05206
  26        3S         -0.00880   0.11572  -0.04180  -0.28597   0.09739
  27        4S          0.06671   0.08871  -0.05905   0.08272   0.03565
  28        5PX        -0.12934  -0.08000  -0.00276   0.02617  -0.02337
  29        5PY        -0.08074   0.07748  -0.06321  -0.01292   0.00364
  30        5PZ         0.00495  -0.05863   0.02327   0.01375  -0.00780
  31        6PX        -0.02392   0.04395  -0.02348   0.08915   0.00235
  32        6PY        -0.01398   0.05076  -0.02055  -0.05394  -0.01740
  33        6PZ         0.00264  -0.03279   0.01392   0.00887  -0.00366
  34        7PX        -0.00521   0.02229   0.01460  -0.08220   0.01323
  35        7PY        -0.00382   0.01541  -0.02271   0.05216  -0.00548
  36        7PZ         0.00030  -0.00339   0.00187   0.00149  -0.00032
  37        8D 0        0.00019   0.00054   0.00149   0.00706  -0.00149
  38        8D+1        0.00007   0.00272  -0.00089  -0.00038  -0.00055
  39        8D-1        0.00015  -0.00383   0.00112   0.00036  -0.00008
  40        8D+2       -0.00761  -0.00433   0.00395  -0.00392   0.00065
  41        8D-2       -0.01050  -0.00150   0.00002   0.00515  -0.00442
  42        9D 0       -0.00007  -0.00492   0.00404   0.00177   0.00069
  43        9D+1       -0.00000   0.00044  -0.00016  -0.00008  -0.00005
  44        9D-1        0.00002  -0.00098   0.00021  -0.00001   0.00002
  45        9D+2       -0.00830   0.00377  -0.01215   0.01201   0.00970
  46        9D-2        0.02432   0.00808   0.00520   0.01326  -0.00586
  47 3   C  1S          0.36213   0.26923   0.48573   0.23283  -0.33063
  48        2S          0.09368   0.07963  -0.04097  -0.11137   0.01991
  49        3S          0.22284   0.08129  -0.14034  -0.22455   0.10179
  50        4S         -0.10219  -0.15646   0.04620  -0.04360  -0.06864
  51        5PX         0.06440   0.01493  -0.04564  -0.04102   0.00267
  52        5PY         0.06797  -0.07029  -0.02318   0.06072  -0.03499
  53        5PZ         0.00324  -0.08531   0.02590   0.00941  -0.00123
  54        6PX         0.03690  -0.00999  -0.04680  -0.04963   0.04201
  55        6PY         0.09786   0.03437  -0.06218  -0.18526   0.03592
  56        6PZ         0.00177  -0.04801   0.01519   0.00615  -0.00026
  57        7PX        -0.01016  -0.03160   0.00865  -0.02622  -0.01328
  58        7PY         0.00225  -0.02744  -0.02064   0.11192  -0.01650
  59        7PZ         0.00020  -0.00633   0.00234   0.00124   0.00015
  60        8D 0        0.00142  -0.00104   0.00147   0.00330  -0.00114
  61        8D+1        0.00015  -0.00317   0.00076   0.00009  -0.00022
  62        8D-1       -0.00023   0.00080  -0.00101  -0.00110   0.00039
  63        8D+2       -0.00791   0.00151  -0.00306   0.00670  -0.00161
  64        8D-2        0.00724  -0.00463  -0.00147   0.00844  -0.00186
  65        9D 0        0.00768   0.00857   0.00284  -0.00364   0.00040
  66        9D+1       -0.00001   0.00078  -0.00037  -0.00024  -0.00009
  67        9D-1       -0.00005  -0.00004  -0.00026  -0.00033   0.00009
  68        9D+2       -0.04151  -0.03308  -0.00535   0.01257   0.00323
  69        9D-2        0.01343   0.02427  -0.00954  -0.07426   0.02036
  70 4   C  1S          0.45865  -0.20504  -0.39868  -0.08601  -0.56000
  71        2S         -0.00245  -0.06427  -0.06812   0.06561  -0.02923
  72        3S         -0.01733  -0.04593  -0.02491   0.12757   0.08696
  73        4S          0.10784   0.20493  -0.04997   0.21552   0.11063
  74        5PX        -0.08126   0.01621  -0.02974   0.10356  -0.00066
  75        5PY        -0.13900  -0.02553   0.05873   0.06021   0.00462
  76        5PZ        -0.00052  -0.03881  -0.00078  -0.01231   0.00166
  77        6PX         0.06769   0.04710  -0.05909  -0.19241   0.11965
  78        6PY         0.03536   0.02158  -0.03716  -0.15224   0.04654
  79        6PZ        -0.00042  -0.02178  -0.00013  -0.00654   0.00149
  80        7PX         0.00017   0.00239  -0.01893   0.17297  -0.00031
  81        7PY        -0.00840  -0.02636   0.00009   0.03250  -0.04171
  82        7PZ        -0.00011  -0.00258   0.00006  -0.00065   0.00043
  83        8D 0        0.00263   0.00094   0.00297  -0.00315   0.00073
  84        8D+1       -0.00020   0.00366  -0.00208  -0.00168  -0.00005
  85        8D-1       -0.00016   0.00368  -0.00112  -0.00041   0.00009
  86        8D+2       -0.00447  -0.00364   0.00024   0.01318  -0.00259
  87        8D-2        0.01322   0.00427  -0.00665   0.00274   0.00154
  88        9D 0        0.00891  -0.00533  -0.00477  -0.00005  -0.00718
  89        9D+1       -0.00005   0.00097  -0.00052  -0.00039  -0.00008
  90        9D-1       -0.00007   0.00143  -0.00060  -0.00032   0.00008
  91        9D+2        0.01915  -0.01212  -0.01551  -0.07850   0.03846
  92        9D-2       -0.07261  -0.04047   0.02565   0.04931  -0.00872
  93 5   C  1S          0.44716   0.24488  -0.18043   0.02095   0.69619
  94        2S         -0.05867  -0.03092  -0.03290   0.24058  -0.00618
  95        3S         -0.18637  -0.09867   0.03126   0.43826  -0.15984
  96        4S         -0.07537  -0.11226   0.16944  -0.55700  -0.12085
  97        5PX         0.05220  -0.00150   0.04791   0.00704  -0.01800
  98        5PY         0.10228   0.06243  -0.06780   0.13820   0.02361
  99        5PZ        -0.00259   0.02978  -0.02841  -0.02874  -0.00125
 100        6PX         0.02972  -0.00449  -0.03630  -0.09360   0.10563
 101        6PY         0.00306   0.04415   0.02973  -0.15478  -0.01600
 102        6PZ        -0.00171   0.02012  -0.01702  -0.01657  -0.00029
 103        7PX         0.00675   0.02175   0.00297   0.08506  -0.00474
 104        7PY        -0.01084   0.01608  -0.02761   0.00256   0.04239
 105        7PZ        -0.00034   0.00391  -0.00252  -0.00225   0.00017
 106        8D 0        0.00351   0.00042   0.00078  -0.00526   0.00101
 107        8D+1       -0.00001   0.00343  -0.00077  -0.00002  -0.00025
 108        8D-1        0.00002  -0.00206   0.00119   0.00098   0.00034
 109        8D+2        0.00014  -0.00059  -0.00144   0.00597   0.00142
 110        8D-2        0.00957   0.00306  -0.00798   0.00342   0.00228
 111        9D 0       -0.00197   0.00274   0.00020   0.00773   0.00867
 112        9D+1       -0.00004   0.00120  -0.00034  -0.00013  -0.00002
 113        9D-1       -0.00004  -0.00062   0.00025   0.00008   0.00017
 114        9D+2       -0.00913   0.00039   0.01429   0.04911  -0.03793
 115        9D-2       -0.03751  -0.01869   0.03605  -0.09220  -0.00580
 116 6   C  1S          0.18693  -0.40989   0.35678   0.03916   0.18374
 117        2S         -0.00155  -0.01687   0.07715  -0.07784  -0.05132
 118        3S         -0.07785   0.03913   0.11898  -0.11292  -0.12625
 119        4S         -0.08021   0.06788  -0.18314   0.30388   0.08138
 120        5PX         0.12764   0.07313  -0.00438   0.05372   0.00418
 121        5PY        -0.08768  -0.04867   0.03195   0.13869  -0.01663
 122        5PZ        -0.00095   0.05307  -0.02980  -0.02380  -0.00711
 123        6PX         0.03005  -0.01889  -0.05853   0.01729   0.05189
 124        6PY        -0.04235  -0.03225   0.02867  -0.16623   0.00039
 125        6PZ        -0.00070   0.03269  -0.01729  -0.01325  -0.00367
 126        7PX        -0.00672  -0.02312   0.02183  -0.07784  -0.01237
 127        7PY         0.01478  -0.01150  -0.00802  -0.00682   0.01814
 128        7PZ        -0.00015   0.00554  -0.00245  -0.00160  -0.00036
 129        8D 0        0.00259   0.00194  -0.00096  -0.00006   0.00193
 130        8D+1       -0.00003  -0.00088   0.00087   0.00088   0.00039
 131        8D-1       -0.00024   0.00122  -0.00118  -0.00120   0.00037
 132        8D+2       -0.01076   0.00221  -0.00009  -0.00111   0.00033
 133        8D-2        0.00227   0.00173  -0.00130  -0.01351   0.00208
 134        9D 0        0.00894  -0.00347   0.00445  -0.00560  -0.00160
 135        9D+1       -0.00005   0.00112  -0.00041  -0.00019  -0.00000
 136        9D-1       -0.00007   0.00039  -0.00043  -0.00044   0.00007
 137        9D+2       -0.03943  -0.01942  -0.02263   0.01794   0.00216
 138        9D-2       -0.01152  -0.00611   0.00125   0.07016  -0.00237
 139 7   H  1S         -0.03166   0.02951  -0.00376  -0.02511   0.01484
 140        2S          0.00375   0.03764   0.00015   0.00292   0.01058
 141        3S         -0.00251  -0.00607   0.00092   0.00597  -0.00650
 142        4PX         0.00088   0.00228  -0.00228  -0.00593   0.00237
 143        4PY         0.00187  -0.00138  -0.00039   0.00229  -0.00066
 144        4PZ         0.00011  -0.00306   0.00094   0.00036  -0.00004
 145        5PX         0.00020   0.00053   0.00177   0.00477   0.00089
 146        5PY        -0.00091   0.00991  -0.00027  -0.01409   0.00390
 147        5PZ         0.00005  -0.00174   0.00057   0.00026   0.00003
 148 8   H  1S         -0.09749  -0.05666   0.03135   0.02754   0.00006
 149        2S         -0.15595  -0.09237   0.06652  -0.02267   0.00780
 150        3S         -0.00692   0.00631   0.00750   0.01157   0.01405
 151        4PX        -0.00481  -0.00176   0.00021   0.00442  -0.00016
 152        4PY         0.00150   0.00294   0.00018  -0.00227  -0.00052
 153        4PZ        -0.00002  -0.00139  -0.00001  -0.00042   0.00007
[...]
 Internal  Forces:  Max     0.000075059 RMS     0.000025270
 Search for a local minimum.
 Step number   1 out of a maximum of    2
 All quantities printed in internal units (Hartrees-Bohrs-Radians)
 Second derivative matrix not updated -- analytic derivatives used.
 ITU=  0
     Eigenvalues ---    0.01321   0.01662   0.01827   0.02378   0.02569
     Eigenvalues ---    0.03301   0.04607   0.05053   0.10391   0.10880
     Eigenvalues ---    0.11405   0.11632   0.19227   0.19811   0.27970
     Eigenvalues ---    0.35657   0.35670   0.36039   0.36261   0.39386
     Eigenvalues ---    0.39727   0.49135   0.49536   0.81549
 Angle between quadratic step and forces=  33.50 degrees.
 Linear search not attempted -- first point.
 Iteration  1 RMS(Cart)=  0.00024141 RMS(Int)=  0.00000009
 Iteration  2 RMS(Cart)=  0.00000009 RMS(Int)=  0.00000003
 ITry= 1 IFail=0 DXMaxC= 9.71D-04 DCOld= 1.00D+10 DXMaxT= 3.00D-01 DXLimC= 3.00D+00 Rises=F
 Variable       Old X    -DE/DX   Delta X   Delta X   Delta X     New X
                                 (Linear)    (Quad)   (Total)
    R1        2.36888   0.00000   0.00000  -0.00001  -0.00001   2.36887
    R2        2.62242  -0.00002   0.00000   0.00001   0.00001   2.62243
    R3        2.62265  -0.00004   0.00000  -0.00022  -0.00022   2.62243
    R4        2.67411  -0.00003   0.00000  -0.00006  -0.00006   2.67405
    R5        2.05691   0.00000   0.00000  -0.00000  -0.00000   2.05691
    R6        2.66194   0.00007   0.00000   0.00022   0.00022   2.66216
    R7        2.06341  -0.00000   0.00000  -0.00001  -0.00001   2.06340
    R8        2.67412  -0.00003   0.00000  -0.00007  -0.00007   2.67405
    R9        2.06340   0.00000   0.00000   0.00000   0.00000   2.06340
   R10        2.05690  -0.00000   0.00000   0.00001   0.00001   2.05691
    A1        2.21999  -0.00003   0.00000  -0.00054  -0.00054   2.21945
    A2        2.21888   0.00004   0.00000   0.00057   0.00057   2.21945
    A3        1.92547   0.00000   0.00000  -0.00013  -0.00013   1.92534
    A4        2.21800   0.00002   0.00000   0.00025   0.00025   2.21825
    A5        2.13972  -0.00002   0.00000  -0.00012  -0.00012   2.13960
    A6        2.13854  -0.00003   0.00000  -0.00014  -0.00014   2.13840
    A7        2.06845   0.00005   0.00000   0.00036   0.00036   2.06881
    A8        2.07620  -0.00002   0.00000  -0.00023  -0.00023   2.07598
    A9        2.13836   0.00000   0.00000   0.00004   0.00004   2.13840
   A10        2.07607  -0.00001   0.00000  -0.00009  -0.00009   2.07598
   A11        2.06876   0.00000   0.00000   0.00005   0.00005   2.06881
   A12        1.92514   0.00001   0.00000   0.00019   0.00019   1.92534
   A13        2.21772   0.00007   0.00000   0.00052   0.00052   2.21825
   A14        2.14032  -0.00008   0.00000  -0.00072  -0.00072   2.13960
    D1        0.00015  -0.00000   0.00000  -0.00015  -0.00015   0.00000
    D2       -0.00016   0.00001   0.00000   0.00016   0.00016   0.00000
    D3        3.14159  -0.00000   0.00000   0.00000   0.00000   3.14159
    D4        0.00008  -0.00001   0.00000  -0.00008  -0.00008  -0.00000
    D5        3.14145   0.00000   0.00000   0.00014   0.00014   3.14159
    D6       -0.00027   0.00001   0.00000   0.00027   0.00027   0.00000
    D7        3.14140   0.00001   0.00000   0.00019   0.00019  -3.14159
    D8        3.14154   0.00000   0.00000   0.00006   0.00006  -3.14159
    D9        0.00002  -0.00000   0.00000  -0.00002  -0.00002   0.00000
   D10        0.00026  -0.00001   0.00000  -0.00026  -0.00026  -0.00000
   D11        3.14158  -0.00000   0.00000   0.00001   0.00001  -3.14159
   D12       -3.14141  -0.00001   0.00000  -0.00018  -0.00018   3.14159
   D13       -0.00009   0.00000   0.00000   0.00009   0.00009   0.00000
   D14       -0.00003  -0.00000   0.00000   0.00003   0.00003  -0.00000
   D15        3.14140   0.00001   0.00000   0.00019   0.00019  -3.14159
   D16       -3.14136  -0.00001   0.00000  -0.00024  -0.00024   3.14159
   D17        0.00008  -0.00000   0.00000  -0.00008  -0.00008   0.00000
         Item               Value     Threshold  Converged?
 Maximum Force            0.000075     0.000450     YES
 RMS     Force            0.000025     0.000300     YES
 Maximum Displacement     0.000971     0.001800     YES
 RMS     Displacement     0.000241     0.001200     YES
 Predicted change in Energy=-1.011026D-07
 Optimization completed.
    -- Stationary point found.
                           ----------------------------
                           !   Optimized Parameters   !
                           ! (Angstroms and Degrees)  !
 --------------------------                            --------------------------
 ! Name  Definition              Value          Derivative Info.                !
 --------------------------------------------------------------------------------
 ! R1    R(1,2)                  1.2536         -DE/DX =    0.0                 !
 ! R2    R(1,6)                  1.3877         -DE/DX =    0.0                 !
 ! R3    R(2,3)                  1.3878         -DE/DX =    0.0                 !
 ! R4    R(3,4)                  1.4151         -DE/DX =    0.0                 !
 ! R5    R(3,7)                  1.0885         -DE/DX =    0.0                 !
 ! R6    R(4,5)                  1.4086         -DE/DX =    0.0001              !
 ! R7    R(4,8)                  1.0919         -DE/DX =    0.0                 !
 ! R8    R(5,6)                  1.4151         -DE/DX =    0.0                 !
 ! R9    R(5,9)                  1.0919         -DE/DX =    0.0                 !
 ! R10   R(6,10)                 1.0885         -DE/DX =    0.0                 !
 ! A1    A(2,1,6)              127.1959         -DE/DX =    0.0                 !
 ! A2    A(1,2,3)              127.1323         -DE/DX =    0.0                 !
 ! A3    A(2,3,4)              110.3212         -DE/DX =    0.0                 !
 ! A4    A(2,3,7)              127.082          -DE/DX =    0.0                 !
 ! A5    A(4,3,7)              122.5968         -DE/DX =    0.0                 !
 ! A6    A(3,4,5)              122.5292         -DE/DX =    0.0                 !
 ! A7    A(3,4,8)              118.5132         -DE/DX =    0.0                 !
 ! A8    A(5,4,8)              118.9576         -DE/DX =    0.0                 !
 ! A9    A(4,5,6)              122.5188         -DE/DX =    0.0                 !
 ! A10   A(4,5,9)              118.9499         -DE/DX =    0.0                 !
 ! A11   A(6,5,9)              118.5313         -DE/DX =    0.0                 !
 ! A12   A(1,6,5)              110.3025         -DE/DX =    0.0                 !
 ! A13   A(1,6,10)             127.0662         -DE/DX =    0.0001              !
 ! A14   A(5,6,10)             122.6312         -DE/DX =   -0.0001              !
 ! D1    D(6,1,2,3)              0.0083         -DE/DX =    0.0                 !
 ! D2    D(2,1,6,5)             -0.0094         -DE/DX =    0.0                 !
 ! D3    D(2,1,6,10)           180.0            -DE/DX =    0.0                 !
 ! D4    D(1,2,3,4)              0.0047         -DE/DX =    0.0                 !
 ! D5    D(1,2,3,7)            179.992          -DE/DX =    0.0                 !
 ! D6    D(2,3,4,5)             -0.0153         -DE/DX =    0.0                 !
 ! D7    D(2,3,4,8)           -180.0111         -DE/DX =    0.0                 !
 ! D8    D(7,3,4,5)           -180.0032         -DE/DX =    0.0                 !
 ! D9    D(7,3,4,8)              0.0009         -DE/DX =    0.0                 !
 ! D10   D(3,4,5,6)              0.0147         -DE/DX =    0.0                 !
 ! D11   D(3,4,5,9)           -180.0008         -DE/DX =    0.0                 !
 ! D12   D(8,4,5,6)            180.0106         -DE/DX =    0.0                 !
 ! D13   D(8,4,5,9)             -0.0049         -DE/DX =    0.0                 !
 ! D14   D(4,5,6,1)             -0.0019         -DE/DX =    0.0                 !
 ! D15   D(4,5,6,10)          -180.0108         -DE/DX =    0.0                 !
 ! D16   D(9,5,6,1)            180.0135         -DE/DX =    0.0                 !
 ! D17   D(9,5,6,10)             0.0046         -DE/DX =    0.0                 !
 --------------------------------------------------------------------------------
 GradGradGradGradGradGradGradGradGradGradGradGradGradGradGradGradGradGrad

 Leave Link  103 at Sat Nov  5 16:02:51 2016, MaxMem=   524288000 cpu:               0.0 elap:               0.0
 (Enter /home/ubuntu/g16/l9999.exe)

 ----------------------------------------------------------------------

 Electric dipole moment (input orientation):
 (Debye = 10**-18 statcoulomb cm , SI units = C m)
                  (au)            (Debye)         (10**-30 SI)
   Tot        0.672076D+00      0.170825D+01      0.569809D+01
   x          0.613561D+00      0.155952D+01      0.520199D+01
   y         -0.273501D+00     -0.695170D+00     -0.231884D+01
   z          0.206229D-01      0.524182D-01      0.174848D+00

 Dipole polarizability, Alpha (input orientation).
 (esu units = cm**3 , SI units = C**2 m**2 J**-1)
 Alpha(0;0):
               (au)            (10**-24 esu)      (10**-40 SI)
   iso        0.679646D+02      0.100713D+02      0.112058D+02
   aniso      0.396340D+02      0.587315D+01      0.653476D+01
   xx         0.770722D+02      0.114209D+02      0.127075D+02
   yx         0.405755D+01      0.601267D+00      0.668999D+00
   yy         0.844705D+02      0.125172D+02      0.139273D+02
   zx         0.118572D+01      0.175705D+00      0.195498D+00
   zy         0.161567D+00      0.239418D-01      0.266388D-01
   zz         0.423511D+02      0.627579D+01      0.698276D+01

 ----------------------------------------------------------------------

 Dipole orientation:
     6         -0.58686841         -1.45613624         -1.74124498
     6          0.34630259          0.72119623         -1.74503006
     6          0.97093654          2.17958205          0.34332858
     6          0.40545520          0.86067088          2.59978278
     6         -0.64354914         -1.58585504          2.60323409
     6         -1.21069797         -2.90997446          0.35023783
     1          1.78142430          4.07007965          0.33823416
     1          0.79997084          1.78104624          4.40392603
     1         -1.03617517         -2.50167372          4.41009020
     1         -2.02097191         -4.80055909          0.34886896

 Electric dipole moment (dipole orientation):
 (Debye = 10**-18 statcoulomb cm , SI units = C m)
                  (au)            (Debye)         (10**-30 SI)
   Tot        0.672076D+00      0.170825D+01      0.569809D+01
   x          0.000000D+00      0.000000D+00      0.000000D+00
   y          0.000000D+00      0.000000D+00      0.000000D+00
   z          0.672076D+00      0.170825D+01      0.569809D+01

 Dipole polarizability, Alpha (dipole orientation).
 (esu units = cm**3 , SI units = C**2 m**2 J**-1)
 Alpha(0;0):
               (au)            (10**-24 esu)      (10**-40 SI)
   iso        0.679646D+02      0.100713D+02      0.112058D+02
   aniso      0.396340D+02      0.587315D+01      0.653476D+01
   xx         0.491343D+02      0.728095D+01      0.810115D+01
   yx         0.159188D+02      0.235892D+01      0.262465D+01
   yy         0.794473D+02      0.117729D+02      0.130991D+02
   zx        -0.127834D-01     -0.189431D-02     -0.210770D-02
   zy        -0.156314D-01     -0.231634D-02     -0.257727D-02
   zz         0.753122D+02      0.111601D+02      0.124173D+02

 ----------------------------------------------------------------------
 1\1\GINC-LC06-2-2\Freq\UB3LYP\Aug-CC-pVDZ\C6H4\UBUNTU\05-Nov-2016\0\\#
 P Geom=AllCheck Guess=TCheck SCRF=Check GenChk UB3LYP/Aug-CC-pVDZ Freq
 \\C6H4_UB3LYP-aug-cc-pVDZ\\0,1\C,-1.1783845804,-0.3837116895,-0.058332
 3771\C,-0.6703980675,0.7621649745,-0.0403275952\C,0.6799320765,1.07932
 90431,0.0058809626\C,1.4611945103,-0.1002531066,0.0316822726\C,0.88996
 93023,-1.3877149969,0.0116612633\C,-0.5084659864,-1.5988250762,-0.0360
 779284\H,1.1201499076,2.0746885313,0.0213638436\H,2.5482926493,-0.0047
 35349,0.068587165\H,1.5484214006,-2.2584717508,0.0334601937\H,-0.95180
 12123,-2.5927905801,-0.0517878001\\Version=ES64L-G16RevA.03\State=1-A\
 HF=-230.9373574\S2=0.\S2-1=0.\S2A=0.\RMSD=4.442e-09\RMSF=4.671e-05\Zer
 oPoint=0.074713\Thermal=0.079229\Dipole=0.6135613,-0.2735009,0.0206229
 \DipoleDeriv=-0.5918173,-0.6770715,-0.019976,-0.0148289,-0.0124281,-0.
 000476,-0.0196553,-0.0230867,-0.0177197,0.0694282,0.5845189,0.0033002,
 -0.0774402,-0.6772299,-0.0030337,0.0029295,0.0195465,-0.0172088,0.2501
 687,-0.0084631,0.0127814,0.2655766,0.3889968,0.0093511,0.0129325,-0.00
 0051,-0.1251707,-0.0059601,-0.0322237,0.004835,-0.0965044,-0.0459226,-
 0.0032439,0.0048191,-0.0010445,-0.1496319,0.0362224,-0.0583357,0.00629
 16,0.0060986,-0.0879832,0.0002533,0.0062918,-0.0018799,-0.149605,0.197
 6403,0.2189084,0.0111596,-0.0555355,0.4398789,-0.0015899,0.0110598,0.0
 078075,-0.1252423,0.0462649,-0.0438122,-0.0030487,-0.0789911,-0.036623
 4,-0.0027869,-0.003056,-0.0015456,0.1352157,-0.0767348,-0.0270351,-0.0
 079577,0.0274233,0.0863942,0.0008936,-0.0079193,-0.0009552,0.1569381,0
 .0128817,0.1085293,-0.0048418,0.0539284,-0.00318,0.0017436,-0.0048463,
 0.0035601,0.1570793,0.061906,-0.0650153,-0.0025437,-0.0297269,-0.05190
 26,-0.0011113,-0.0025559,-0.0023512,0.1353453\Polar=77.0721705,4.05754
 75,84.4704734,1.1857164,0.1615672,42.3511178\Quadrupole=-0.0543513,2.7
 835752,-2.7292239,1.5709937,0.0916891,0.056658\PG=C01 [X(C6H4)]\NImag=
 0\\0.27271549,0.17013924,0.99452229,0.00755181,0.00633087,0.05467663,-
 0.10518993,-0.27310867,-0.00266267,0.49957438,-0.30906973,-0.63250068,
 -0.01089462,0.37539456,0.76693277,-0.00268008,-0.00967140,-0.03200782,
 0.01539146,0.01321583,0.05494368,-0.02879878,-0.07464516,-0.00071888,-
 0.30298925,-0.07242577,-0.00920244,0.59339010,0.00728798,0.00631242,0.
 00025382,-0.12654399,-0.08688665,-0.00433613,0.11482810,0.69494071,-0.
 00066996,-0.00253445,-0.00892795,-0.00923215,-0.00249246,-0.03460045,0
 .01650220,0.00423631,0.11076462,-0.01463773,-0.00260941,-0.00034764,-0
 .05561294,0.00683923,-0.00227971,-0.15005172,0.11500867,-0.00306718,0.
 70576923,-0.01014115,-0.07887140,-0.00038459,0.07806569,0.04948849,0.0
 0267609,0.04673564,-0.24716011,0.00147168,0.02001465,0.60810087,-0.000
 35657,-0.00012939,-0.00438096,-0.00224013,0.00025259,0.01139155,-0.003
 10568,0.00379187,-0.05769275,0.01939281,0.00093827,0.13497665,-0.04005
 500,0.09222078,-0.00170558,-0.04355030,-0.03636228,-0.00135513,0.04717
 419,-0.00847127,0.00136268,-0.14306510,-0.03968845,-0.00245705,0.63183
 839,0.02095502,0.03391128,0.00072607,-0.02883450,-0.04985552,-0.001006
 37,0.04539048,-0.04913228,0.00151611,-0.10088749,-0.27036568,-0.003524
 72,-0.04696660,0.68204372,-0.00174280,0.00315300,0.01141217,-0.0013475
 6,-0.00126078,-0.00441495,0.00139406,-0.00032406,0.00690796,-0.0024925
 5,-0.00144347,-0.07114140,0.01687262,-0.00128290,0.13487636,-0.0851318
 9,0.07047797,-0.00170362,0.02404595,0.05507549,0.00115177,-0.04761571,
 0.01177673,-0.00201689,-0.02413643,-0.07298311,-0.00109474,-0.28377870
 ,-0.00592559,-0.00770194,0.53480378,0.12460478,-0.30530211,0.00411546,
 -0.02681742,-0.04651684,-0.00093285,0.02070740,-0.01829978,0.00068658,
 -0.01912139,0.02227758,-0.00064039,-0.07421879,-0.11327313,-0.00256216
 ,0.06185959,0.75380408,-0.00167285,0.00226915,-0.03434485,0.00110679,0
 .00185139,-0.00884957,-0.00201261,0.00038554,0.01177802,-0.00106708,-0
 .00247473,0.00681461,-0.00774327,-0.00023692,-0.05783744,0.01451164,0.
 00246073,0.11065590,-0.00094037,-0.00324150,-0.00030259,-0.01445667,-0
 .02473848,-0.00043865,-0.09655813,-0.10579152,-0.00218640,0.00940227,0
 .01635702,0.00023105,-0.00041285,0.00248901,-0.00031761,-0.00219211,0.
 00114470,-0.00006695,0.10371189,-0.00145143,0.00215793,-0.00005274,0.0
 0013178,0.00034443,0.00000598,-0.10444118,-0.29807733,-0.00369016,-0.0
 1169150,-0.01496332,-0.00040558,0.00349361,-0.00105534,0.00011219,0.00
 058917,0.00039804,0.00002053,0.11394615,0.31111640,-0.00030359,-0.0001
 1169,0.00787915,-0.00042765,-0.00084461,-0.00196104,-0.00218143,-0.003
 73022,-0.03391937,0.00021500,0.00054539,0.00285541,-0.00031738,0.00007
 801,0.00897777,-0.00006553,0.00003970,-0.00021879,0.00282035,0.0040256
 6,0.02260978,-0.00075492,0.00051302,-0.00019563,-0.00165152,0.00103704
 ,-0.00014365,-0.01208235,-0.00438906,-0.00055655,-0.33333321,-0.026589
 05,-0.01016880,-0.00689336,0.00331654,-0.00031168,0.00020215,-0.000458
 34,-0.00005119,0.00071389,0.00005859,0.00014792,0.35339951,0.00431686,
 -0.00096326,0.00014364,0.00305754,-0.00067968,0.00010225,0.02359622,0.
 00303373,0.00080043,-0.02510522,-0.05576931,-0.00086357,-0.02700907,0.
 00131056,-0.00091776,-0.00386251,-0.00560390,-0.00013493,-0.00053074,0
 .00082557,-0.00001549,0.02664482,0.05732702,-0.00019547,0.00001423,0.0
 0502140,-0.00014297,0.00003251,0.00260524,-0.00053966,-0.00014906,0.00
 420761,-0.01017001,-0.00091482,-0.03414501,-0.00032572,0.00011286,0.00
 231792,-0.00005356,-0.00001910,0.00170659,0.00014814,0.00000448,-0.003
 65031,0.01118050,0.00092159,0.02446334,-0.00315059,0.00169316,-0.00019
 499,-0.00325954,0.00204687,-0.00028079,-0.00083997,-0.00480379,-0.0000
 8874,0.00940075,-0.01226510,0.00023281,-0.15495596,0.13635663,-0.00402
 659,-0.01331124,0.02247743,-0.00058241,0.00045013,-0.00057347,0.000009
 84,0.00063001,0.00008120,0.00011220,0.16402735,-0.00031981,0.00081698,
 -0.00001187,-0.00175904,0.00155401,-0.00006233,-0.00140075,-0.00456305
 ,-0.00005051,0.01806374,-0.01500793,0.00060236,0.13486017,-0.23437233,
 0.00445459,-0.00550681,0.00427510,-0.00018752,0.00069324,-0.00067960,0
 .00002298,-0.00021125,0.00051659,-0.00000526,-0.14474611,0.24693064,-0
 .00019614,0.00005355,0.00260246,-0.00028164,0.00006969,0.00501844,-0.0
 0008770,-0.00016536,0.00170206,0.00024885,-0.00042620,0.00234275,-0.00
 402149,0.00450019,-0.03392722,-0.00060412,0.00076602,0.00420711,0.0000
 1057,-0.00001976,0.00014793,0.00011183,0.00000444,-0.00267445,0.004660
 55,-0.00477616,0.02423254,0.00594373,0.01856056,0.00027980,0.00308982,
 0.00220307,-0.00016277,-0.00162837,0.00109814,-0.00004703,-0.00373513,
 0.00049387,-0.00043372,-0.00630132,-0.02589349,-0.00032595,-0.10288581
 ,-0.11017796,-0.00242207,0.00028195,-0.00006173,0.00010247,-0.00023021
 ,-0.00118911,-0.00001344,0.00100904,0.00032663,0.00015929,0.10445629,-
 0.00632176,-0.02008345,-0.00022604,0.00041405,-0.00188033,0.00000892,0
 .00165502,-0.00016766,0.00005646,-0.00051129,0.00227082,-0.00002145,0.
 00214189,0.00078873,0.00007134,-0.11150093,-0.29175904,-0.00395324,-0.
 00032788,-0.00006677,-0.00000972,0.00007769,0.00000268,0.00000258,-0.0
 0026683,0.00052959,-0.00000641,0.11464002,0.31036544,0.00026565,0.0006
 2612,-0.00193023,-0.00016348,0.00007045,0.00787491,-0.00004787,0.00003
 729,-0.00021975,-0.00043249,0.00001237,0.00897914,-0.00030968,-0.00088
 232,0.00282881,-0.00242300,-0.00391399,-0.03391159,0.00010208,-0.00000
 059,-0.00272053,-0.00001275,-0.00004061,0.00014766,0.00015810,0.000013
 72,-0.00365163,0.00286343,0.00407755,0.02260322\\0.00000604,0.00000629
 ,-0.00001208,-0.00007514,0.00001767,-0.00000721,0.00007621,0.00002995,
 0.00002478,-0.00004446,-0.00014021,-0.00002091,0.00005961,0.00009804,0
 .00002588,0.00006373,-0.00007479,0.00001035,-0.00001672,0.00000669,-0.
 00000311,-0.00000109,0.00003200,-0.00000519,-0.00000450,-0.00000171,-0
 .00000620,-0.00006369,0.00002607,-0.00000631\\\@


 SCIENCE IS A VERY HUMAN FORM OF KNOWLEDGE.
 WE ARE ALWAYS AT THE BRINK OF THE KNOWN,
 WE ALWAYS FEEL FORWARD FOR WHAT IS HOPED.
 EVERY JUDGEMENT IN SCIENCE STANDS ON THE EDGE OF ERROR, AND IS PERSONAL.
 SCIENCE IS A TRIBUTE TO WHAT WE CAN KNOW ALTHOUGH WE ARE FALLIBLE.

                     -- J. BRONOWSKI
 Job cpu time:       0 days  0 hours 29 minutes 13.1 seconds.
 Elapsed time:       0 days  0 hours  4 minutes 10.6 seconds.
 File lengths (MBytes):  RWF=     59 Int=      0 D2E=      0 Chk=      5 Scr=      1
 Normal termination of Gaussian 16 at Sat Nov  5 16:02:51 2016.
