 Entering Gaussian System, Link 0=/home/ubuntu/g16/g16
 Input=C6H4N2+_UB3LYP-aug-cc-pVDZ-Opt.gjf
 Output=C6H4N2+_UB3LYP-aug-cc-pVDZ-Opt.log
 Initial command:
 /home/ubuntu/g16/l1.exe "/home/ubuntu/g16/Gau-18545.inp" -scrdir="/home/ubuntu/g16/"
 Entering Link 1 = /home/ubuntu/g16/l1.exe PID=     18547.
  
 Copyright (c) 1988,1990,1992,1993,1995,1998,2003,2009,2016,
            Gaussian, Inc.  All Rights Reserved.
  
 This is part of the Gaussian(R) 16 program.  It is based on
 the Gaussian(R) 09 system (copyright 2009, Gaussian, Inc.),
 the Gaussian(R) 03 system (copyright 2003, Gaussian, Inc.),
 the Gaussian(R) 98 system (copyright 1998, Gaussian, Inc.),
 the Gaussian(R) 94 system (copyright 1995, Gaussian, Inc.),
 the Gaussian 92(TM) system (copyright 1992, Gaussian, Inc.),
 the Gaussian 90(TM) system (copyright 1990, Gaussian, Inc.),
 the Gaussian 88(TM) system (copyright 1988, Gaussian, Inc.),
 the Gaussian 86(TM) system (copyright 1986, Carnegie Mellon
 University), and the Gaussian 82(TM) system (copyright 1983,
 Carnegie Mellon University). Gaussian is a federally registered
 trademark of Gaussian, Inc.
  
 This software contains proprietary and confidential information,
 including trade secrets, belonging to Gaussian, Inc.
  
 This software is provided under written license and may be
 used, copied, transmitted, or stored only in accord with that
 written license.
  
 The following legend is applicable only to US Government
 contracts under FAR:
  
                    RESTRICTED RIGHTS LEGEND
  
 Use, reproduction and disclosure by the US Government is
 subject to restrictions as set forth in subparagraphs (a)
 and (c) of the Commercial Computer Software - Restricted
 Rights clause in FAR 52.227-19.
  
 Gaussian, Inc.
 340 Quinnipiac St., Bldg. 40, Wallingford CT 06492
  
  
 ---------------------------------------------------------------
 Warning -- This program may not be used in any manner that
 competes with the business of Gaussian, Inc. or will provide
 assistance to any competitor of Gaussian, Inc.  The licensee
 of this program is prohibited from giving any competitor of
 Gaussian, Inc. access to this program.  By using this program,
 the user acknowledges that Gaussian, Inc. is engaged in the
 business of creating and licensing software in the field of
 computational chemistry and represents and warrants to the
 licensee that it is not a competitor of Gaussian, Inc. and that
 it will not use this program in any manner prohibited above.
 ---------------------------------------------------------------
  

 Cite this work as:
 Gaussian 16, Revision A.03,
 M. J. Frisch, G. W. Trucks, H. B. Schlegel, G. E. Scuseria, 
 M. A. Robb, J. R. Cheeseman, G. Scalmani, V. Barone, 
 G. A. Petersson, H. Nakatsuji, X. Li, M. Caricato, A. V. Marenich, 
 J. Bloino, B. G. Janesko, R. Gomperts, B. Mennucci, H. P. Hratchian, 
 J. V. Ortiz, A. F. Izmaylov, J. L. Sonnenberg, D. Williams-Young, 
 F. Ding, F. Lipparini, F. Egidi, J. Goings, B. Peng, A. Petrone, 
 T. Henderson, D. Ranasinghe, V. G. Zakrzewski, J. Gao, N. Rega, 
 G. Zheng, W. Liang, M. Hada, M. Ehara, K. Toyota, R. Fukuda, 
 J. Hasegawa, M. Ishida, T. Nakajima, Y. Honda, O. Kitao, H. Nakai, 
 T. Vreven, K. Throssell, J. A. Montgomery, Jr., J. E. Peralta, 
 F. Ogliaro, M. J. Bearpark, J. J. Heyd, E. N. Brothers, K. N. Kudin, 
 V. N. Staroverov, T. A. Keith, R. Kobayashi, J. Normand, 
 K. Raghavachari, A. P. Rendell, J. C. Burant, S. S. Iyengar, 
 J. Tomasi, M. Cossi, J. M. Millam, M. Klene, C. Adamo, R. Cammi, 
 J. W. Ochterski, R. L. Martin, K. Morokuma, O. Farkas, 
 J. B. Foresman, and D. J. Fox, Gaussian, Inc., Wallingford CT, 2016.
 
 ******************************************
 Gaussian 16:  ES64L-G16RevA.03 25-Dec-2016
                 5-Nov-2016 
 ******************************************
 %chk=C6H4N2+_UB3LYP-aug-cc-pVDZ-Opt.chk
 %mem=500MW
 %nproc=7
 Will use up to    7 processors via shared memory.
 ----------------------------------------------------------------------
 #p opt=(maxcycles=777) freq ub3lyp/aug-cc-pVDZ pop=(Bonding,AllOrbital
 s,mk,no,nboread)
 ----------------------------------------------------------------------
 1/6=777,18=20,19=15,26=3,38=1/1,3;
 2/9=110,12=2,17=6,18=5,40=1/2;
 3/5=16,7=10,11=2,25=1,30=1,71=1,74=-5,116=2/1,2,3;
 4//1;
 5/5=2,38=5/2;
 6/7=2,8=2,9=2,10=2,15=8,20=1,22=-1,27=20,28=1,31=1,40=2,96=-1/1,2,7;
 7//1,2,3,16;
 1/6=777,18=20,19=15,26=3/3(2);
 2/9=110/2;
 99//99;
 2/9=110/2;
 3/5=16,7=10,11=2,25=1,30=1,71=1,74=-5,116=2/1,2,3;
 4/5=5,16=3,69=1/1;
 5/5=2,38=5/2;
 7//1,2,3,16;
 1/6=777,18=20,19=15,26=3/3(-5);
 2/9=110/2;
 6/7=2,8=2,9=2,10=2,15=8,19=2,20=1,22=-1,27=20,28=1,31=1,40=2,96=-1/1,2,7;
 99/9=1/99;
 Leave Link    1 at Sat Nov  5 19:14:58 2016, MaxMem=   524288000 cpu:               0.4 elap:               0.1
 (Enter /home/ubuntu/g16/l101.exe)
 --------------------------
 C6H4N2+_UB3LYP-aug-cc-pVDZ
 --------------------------
 Symbolic Z-matrix:
 Charge =  1 Multiplicity = 2
 C                    -1.20398  -0.39192  -0.05918 
 N                    -2.59183  -0.53088  -0.10485 
 N                    -3.70799  -0.57526  -0.14082 
 C                    -0.79464   0.95502  -0.04478 
 C                     0.63093   1.01066   0.00356 
 C                     1.45263  -0.11483   0.03177 
 C                     0.92017  -1.4299    0.0124 
 C                    -0.44767  -1.59805  -0.03455 
 H                     1.11397   1.99235   0.0203 
 H                     2.5388    0.00786   0.0699 
 H                     1.58214  -2.29499   0.0348 
 H                    -0.91727  -2.58232  -0.05176 
 
 ITRead=  0  0  0  0  0  0  0  0  0  0  0  0
 MicOpt= -1 -1 -1 -1 -1 -1 -1 -1 -1 -1 -1 -1
 NAtoms=     12 NQM=       12 NQMF=       0 NMMI=      0 NMMIF=      0
                NMic=       0 NMicF=      0.
                    Isotopes and Nuclear Properties:
 (Nuclear quadrupole moments (NQMom) in fm**2, nuclear magnetic moments (NMagM)
  in nuclear magnetons)

  Atom         1           2           3           4           5           6           7           8           9          10
 IAtWgt=          12          14          14          12          12          12          12          12           1           1
 AtmWgt=  12.0000000  14.0030740  14.0030740  12.0000000  12.0000000  12.0000000  12.0000000  12.0000000   1.0078250   1.0078250
 NucSpn=           0           2           2           0           0           0           0           0           1           1
 AtZEff=  -0.0000000  -0.0000000  -0.0000000  -0.0000000  -0.0000000  -0.0000000  -0.0000000  -0.0000000  -0.0000000  -0.0000000
 NQMom=    0.0000000   2.0440000   2.0440000   0.0000000   0.0000000   0.0000000   0.0000000   0.0000000   0.0000000   0.0000000
 NMagM=    0.0000000   0.4037610   0.4037610   0.0000000   0.0000000   0.0000000   0.0000000   0.0000000   2.7928460   2.7928460
 AtZNuc=   6.0000000   7.0000000   7.0000000   6.0000000   6.0000000   6.0000000   6.0000000   6.0000000   1.0000000   1.0000000

  Atom        11          12
 IAtWgt=           1           1
 AtmWgt=   1.0078250   1.0078250
 NucSpn=           1           1
 AtZEff=  -0.0000000  -0.0000000
 NQMom=    0.0000000   0.0000000
 NMagM=    2.7928460   2.7928460
 AtZNuc=   1.0000000   1.0000000
 Leave Link  101 at Sat Nov  5 19:14:58 2016, MaxMem=   524288000 cpu:               1.2 elap:               0.2
 (Enter /home/ubuntu/g16/l103.exe)

 GradGradGradGradGradGradGradGradGradGradGradGradGradGradGradGradGradGrad
 Berny optimization.
 Initialization pass.
                           ----------------------------
                           !    Initial Parameters    !
                           ! (Angstroms and Degrees)  !
 --------------------------                            --------------------------
 ! Name  Definition              Value          Derivative Info.                !
 --------------------------------------------------------------------------------
 ! R1    R(1,2)                  1.3955         estimate D2E/DX2                !
 ! R2    R(1,4)                  1.4078         estimate D2E/DX2                !
 ! R3    R(1,8)                  1.4239         estimate D2E/DX2                !
 ! R4    R(2,3)                  1.1176         estimate D2E/DX2                !
 ! R5    R(4,5)                  1.4275         estimate D2E/DX2                !
 ! R6    R(5,6)                  1.3938         estimate D2E/DX2                !
 ! R7    R(5,9)                  1.0942         estimate D2E/DX2                !
 ! R8    R(6,7)                  1.4189         estimate D2E/DX2                !
 ! R9    R(6,10)                 1.0937         estimate D2E/DX2                !
 ! R10   R(7,8)                  1.3789         estimate D2E/DX2                !
 ! R11   R(7,11)                 1.0895         estimate D2E/DX2                !
 ! R12   R(8,12)                 1.0907         estimate D2E/DX2                !
 ! A1    A(2,1,4)              112.6287         estimate D2E/DX2                !
 ! A2    A(2,1,8)              116.389          estimate D2E/DX2                !
 ! A3    A(4,1,8)              130.9823         estimate D2E/DX2                !
 ! A4    A(1,4,5)              109.1479         estimate D2E/DX2                !
 ! A5    A(4,5,6)              123.9147         estimate D2E/DX2                !
 ! A6    A(4,5,9)              118.4469         estimate D2E/DX2                !
 ! A7    A(6,5,9)              117.6383         estimate D2E/DX2                !
 ! A8    A(5,6,7)              121.7957         estimate D2E/DX2                !
 ! A9    A(5,6,10)             119.7079         estimate D2E/DX2                !
 ! A10   A(7,6,10)             118.4964         estimate D2E/DX2                !
 ! A11   A(6,7,8)              119.0599         estimate D2E/DX2                !
 ! A12   A(6,7,11)             120.5051         estimate D2E/DX2                !
 ! A13   A(8,7,11)             120.435          estimate D2E/DX2                !
 ! A14   A(1,8,7)              115.0994         estimate D2E/DX2                !
 ! A15   A(1,8,12)             122.3755         estimate D2E/DX2                !
 ! A16   A(7,8,12)             122.5251         estimate D2E/DX2                !
 ! A17   L(1,2,3,12,-1)        183.4389         estimate D2E/DX2                !
 ! A18   L(1,2,3,12,-2)        179.9552         estimate D2E/DX2                !
 ! D1    D(2,1,4,5)            179.9367         estimate D2E/DX2                !
 ! D2    D(8,1,4,5)             -0.0284         estimate D2E/DX2                !
 ! D3    D(2,1,8,7)           -179.9114         estimate D2E/DX2                !
 ! D4    D(2,1,8,12)             0.0975         estimate D2E/DX2                !
 ! D5    D(4,1,8,7)              0.0527         estimate D2E/DX2                !
 ! D6    D(4,1,8,12)          -179.9384         estimate D2E/DX2                !
 ! D7    D(1,4,5,6)             -0.0395         estimate D2E/DX2                !
 ! D8    D(1,4,5,9)            179.9991         estimate D2E/DX2                !
 ! D9    D(4,5,6,7)              0.0808         estimate D2E/DX2                !
 ! D10   D(4,5,6,10)          -179.9203         estimate D2E/DX2                !
 ! D11   D(9,5,6,7)           -179.9575         estimate D2E/DX2                !
 ! D12   D(9,5,6,10)             0.0414         estimate D2E/DX2                !
 ! D13   D(5,6,7,8)             -0.0522         estimate D2E/DX2                !
 ! D14   D(5,6,7,11)           179.9787         estimate D2E/DX2                !
 ! D15   D(10,6,7,8)           179.9489         estimate D2E/DX2                !
 ! D16   D(10,6,7,11)           -0.0202         estimate D2E/DX2                !
 ! D17   D(6,7,8,1)             -0.0086         estimate D2E/DX2                !
 ! D18   D(6,7,8,12)           179.9825         estimate D2E/DX2                !
 ! D19   D(11,7,8,1)           179.9605         estimate D2E/DX2                !
 ! D20   D(11,7,8,12)           -0.0484         estimate D2E/DX2                !
 --------------------------------------------------------------------------------
 Trust Radius=3.00D-01 FncErr=1.00D-07 GrdErr=1.00D-06 EigMax=2.50D+02 EigMin=1.00D-04
 Number of steps in this run=    100 maximum allowed number of steps=    100.
 GradGradGradGradGradGradGradGradGradGradGradGradGradGradGradGradGradGrad

 Leave Link  103 at Sat Nov  5 19:14:58 2016, MaxMem=   524288000 cpu:               0.1 elap:               0.0
 (Enter /home/ubuntu/g16/l202.exe)
                          Input orientation:                          
 ---------------------------------------------------------------------
 Center     Atomic      Atomic             Coordinates (Angstroms)
 Number     Number       Type             X           Y           Z
 ---------------------------------------------------------------------
      1          6           0       -1.203980   -0.391920   -0.059180
      2          7           0       -2.591830   -0.530880   -0.104850
      3          7           0       -3.707990   -0.575260   -0.140820
      4          6           0       -0.794640    0.955020   -0.044780
      5          6           0        0.630930    1.010660    0.003560
      6          6           0        1.452630   -0.114830    0.031770
      7          6           0        0.920170   -1.429900    0.012400
      8          6           0       -0.447670   -1.598050   -0.034550
      9          1           0        1.113970    1.992350    0.020300
     10          1           0        2.538800    0.007860    0.069900
     11          1           0        1.582140   -2.294990    0.034800
     12          1           0       -0.917270   -2.582320   -0.051760
 ---------------------------------------------------------------------
                    Distance matrix (angstroms):
                    1          2          3          4          5
     1  C    0.000000
     2  N    1.395537   0.000000
     3  N    2.512040   1.117621   0.000000
     4  C    1.407840   2.332681   3.292201   0.000000
     5  C    2.310425   3.574113   4.621928   1.427474   0.000000
     6  C    2.672569   4.068098   5.183993   2.490113   1.393813
     7  C    2.365278   3.627138   4.708901   2.937973   2.457656
     8  C    1.423854   2.396083   3.418637   2.576560   2.823154
     9  H    3.326252   4.485009   5.465334   2.173265   1.094223
    10  H    3.766283   5.161796   6.277485   3.467288   2.156380
    11  H    3.375348   4.533609   5.565410   4.027155   3.439927
    12  H    2.209097   2.648655   3.438654   3.539472   3.912734
                    6          7          8          9         10
     6  C    0.000000
     7  C    1.418907   0.000000
     8  C    2.411531   1.378936   0.000000
     9  H    2.134252   3.427742   3.915699   0.000000
    10  H    1.093742   2.165738   3.392471   2.443522   0.000000
    11  H    2.184005   1.089535   2.147246   4.312850   2.493902
    12  H    3.422267   2.169879   1.090691   5.005870   4.320677
                   11         12
    11  H    0.000000
    12  H    2.517360   0.000000
 Stoichiometry    C6H4N2(1+,2)
 Framework group  C1[X(C6H4N2)]
 Deg. of freedom    30
 Full point group                 C1      NOp   1
 Largest Abelian subgroup         C1      NOp   1
 Largest concise Abelian subgroup C1      NOp   1
                         Standard orientation:                         
 ---------------------------------------------------------------------
 Center     Atomic      Atomic             Coordinates (Angstroms)
 Number     Number       Type             X           Y           Z
 ---------------------------------------------------------------------
      1          6           0        0.529416   -0.024222   -0.000892
      2          7           0        1.924805   -0.003931   -0.000075
      3          7           0        3.041270   -0.054742    0.001308
      4          6           0        0.006690   -1.331422   -0.000875
      5          6           0       -1.419260   -1.265481   -0.000242
      6          6           0       -2.142687   -0.074110    0.001064
      7          6           0       -1.499903    1.190851    0.000179
      8          6           0       -0.121913    1.241926   -0.000937
      9          1           0       -1.984374   -2.202481   -0.000163
     10          1           0       -3.236023   -0.103870    0.002803
     11          1           0       -2.086234    2.109166    0.000884
     12          1           0        0.430052    2.182639   -0.001934
 ---------------------------------------------------------------------
 Rotational constants (GHZ):           5.5983863           1.6310252           1.2630506
 Leave Link  202 at Sat Nov  5 19:14:58 2016, MaxMem=   524288000 cpu:               0.0 elap:               0.0
 (Enter /home/ubuntu/g16/l301.exe)
 Standard basis: Aug-CC-pVDZ (5D, 7F)
 Ernie: Thresh=  0.10000D-02 Tol=  0.10000D-05 Strict=F.
 Ernie:  16 primitive shells out of 228 were deleted.
 There are   236 symmetry adapted cartesian basis functions of A   symmetry.
 There are   220 symmetry adapted basis functions of A   symmetry.
   220 basis functions,   388 primitive gaussians,   236 cartesian basis functions
    27 alpha electrons       26 beta electrons
       nuclear repulsion energy       301.9605268094 Hartrees.
 IExCor=  402 DFT=T Ex+Corr=B3LYP ExCW=0 ScaHFX=  0.200000
 ScaDFX=  0.800000  0.720000  1.000000  0.810000 ScalE2=  1.000000  1.000000
 IRadAn=      5 IRanWt=     -1 IRanGd=            0 ICorTp=0 IEmpDi=  4
 NAtoms=   12 NActive=   12 NUniq=   12 SFac= 1.00D+00 NAtFMM=   60 NAOKFM=F Big=F
 Integral buffers will be    131072 words long.
 Raffenetti 2 integral format.
 Two-electron integral symmetry is turned on.
 Leave Link  301 at Sat Nov  5 19:14:58 2016, MaxMem=   524288000 cpu:               0.2 elap:               0.0
 (Enter /home/ubuntu/g16/l302.exe)
 NPDir=0 NMtPBC=     1 NCelOv=     1 NCel=       1 NClECP=     1 NCelD=      1
         NCelK=      1 NCelE2=     1 NClLst=     1 CellRange=     0.0.
 One-electron integrals computed using PRISM.
 One-electron integral symmetry used in STVInt
 NBasis=   220 RedAO= T EigKep=  5.39D-06  NBF=   220
 NBsUse=   220 1.00D-06 EigRej= -1.00D+00 NBFU=   220
 Precomputing XC quadrature grid using
 IXCGrd= 4 IRadAn=           5 IRanWt=          -1 IRanGd=           0 AccXCQ= 0.00D+00.
 Generated NRdTot=       0 NPtTot=           0 NUsed=           0 NTot=          32
 NSgBfM=   236   236   236   236   236 MxSgAt=    12 MxSgA2=    12.
 Leave Link  302 at Sat Nov  5 19:14:58 2016, MaxMem=   524288000 cpu:               1.9 elap:               0.3
 (Enter /home/ubuntu/g16/l303.exe)
 DipDrv:  MaxL=1.
 Leave Link  303 at Sat Nov  5 19:14:58 2016, MaxMem=   524288000 cpu:               0.3 elap:               0.0
 (Enter /home/ubuntu/g16/l401.exe)
 ExpMin= 2.97D-02 ExpMax= 9.05D+03 ExpMxC= 3.09D+02 IAcc=3 IRadAn=         5 AccDes= 0.00D+00
 Harris functional with IExCor=  402 and IRadAn=       5 diagonalized for initial guess.
 HarFok:  IExCor=  402 AccDes= 0.00D+00 IRadAn=         5 IDoV= 1 UseB2=F ITyADJ=14
 ICtDFT=  3500011 ScaDFX=  1.000000  1.000000  1.000000  1.000000
 FoFCou: FMM=F IPFlag=           0 FMFlag=      100000 FMFlg1=           0
         NFxFlg=           0 DoJE=T BraDBF=F KetDBF=T FulRan=T
         wScrn=  0.000000 ICntrl=       500 IOpCl=  0 I1Cent=   200000004 NGrid=           0
         NMat0=    1 NMatS0=      1 NMatT0=    0 NMatD0=    1 NMtDS0=    0 NMtDT0=    0
 Petite list used in FoFCou.
 Harris En= -340.177740678847    
 JPrj=0 DoOrth=F DoCkMO=F.
 Initial guess <Sx>= 0.0000 <Sy>= 0.0000 <Sz>= 0.5000 <S**2>= 0.7500 S= 0.5000
 Leave Link  401 at Sat Nov  5 19:15:00 2016, MaxMem=   524288000 cpu:              11.1 elap:               1.6
 (Enter /home/ubuntu/g16/l502.exe)
 Integral symmetry usage will be decided dynamically.
 UHF open shell SCF:
 Using DIIS extrapolation, IDIIS=  1040.
 NGot=   524288000 LenX=   524172708 LenY=   524116571
 Requested convergence on RMS density matrix=1.00D-08 within 128 cycles.
 Requested convergence on MAX density matrix=1.00D-06.
 Requested convergence on             energy=1.00D-06.
 No special actions if energy rises.
 Fock matrices will be formed incrementally for  20 cycles.

 Cycle   1  Pass 1  IDiag  1:
 FoFJK:  IHMeth= 1 ICntrl=       0 DoSepK=F KAlg= 0 I1Cent=           0 FoldK=F
 IRaf= 990000000 NMat=       1 IRICut=       1 DoRegI=T DoRafI=F ISym2E= 0 IDoP0=0 IntGTp=1.
 FoFCou: FMM=F IPFlag=           0 FMFlag=      100000 FMFlg1=           0
         NFxFlg=           0 DoJE=F BraDBF=F KetDBF=F FulRan=T
         wScrn=  0.000000 ICntrl=         0 IOpCl=  1 I1Cent=           0 NGrid=           0
         NMat0=    1 NMatS0=      1 NMatT0=    0 NMatD0=    1 NMtDS0=    0 NMtDT0=    0
 Symmetry not used in FoFCou.
 E= -339.999011056021    
 DIIS: error= 1.93D-02 at cycle   1 NSaved=   1.
 NSaved= 1 IEnMin= 1 EnMin= -339.999011056021     IErMin= 1 ErrMin= 1.93D-02
 ErrMax= 1.93D-02  0.00D+00 EMaxC= 1.00D-01 BMatC= 5.54D-01 BMatP= 5.54D-01
 IDIUse=3 WtCom= 8.07D-01 WtEn= 1.93D-01
 Coeff-Com:  0.100D+01
 Coeff-En:   0.100D+01
 Coeff:      0.100D+01
 Gap=     0.266 Goal=   None    Shift=    0.000
 Gap=     0.094 Goal=   None    Shift=    0.000
 GapD=    0.094 DampG=0.500 DampE=0.500 DampFc=0.2500 IDamp=-1.
 Damping current iteration by 2.50D-01
 RMSDP=3.96D-02 MaxDP=1.27D+00              OVMax= 9.49D-01

 Cycle   2  Pass 1  IDiag  1:
 RMSU=  4.35D-03    CP:  9.03D-01
 E= -339.872692350447     Delta-E=        0.126318705574 Rises=F Damp=T
 DIIS: error= 1.09D-02 at cycle   2 NSaved=   2.
 NSaved= 2 IEnMin= 1 EnMin= -339.999011056021     IErMin= 2 ErrMin= 1.09D-02
 ErrMax= 1.09D-02  0.00D+00 EMaxC= 1.00D-01 BMatC= 1.49D-01 BMatP= 5.54D-01
 IDIUse=3 WtCom= 8.91D-01 WtEn= 1.09D-01
 Coeff-Com:  0.209D+00 0.791D+00
 Coeff-En:   0.741D+00 0.259D+00
 Coeff:      0.267D+00 0.733D+00
 Gap=    -0.182 Goal=   None    Shift=    0.000
 Gap=    -0.235 Goal=   None    Shift=    0.000
 RMSDP=2.99D-02 MaxDP=1.03D+00 DE= 1.26D-01 OVMax= 9.00D-01

 Cycle   3  Pass 1  IDiag  1:
 RMSU=  8.10D-03    CP:  5.94D-01  2.18D+00
 E= -340.057331061203     Delta-E=       -0.184638710756 Rises=F Damp=F
 DIIS: error= 2.34D-02 at cycle   3 NSaved=   3.
 NSaved= 3 IEnMin= 3 EnMin= -340.057331061203     IErMin= 2 ErrMin= 1.09D-02
 ErrMax= 2.34D-02  0.00D+00 EMaxC= 1.00D-01 BMatC= 3.98D-01 BMatP= 1.49D-01
 IDIUse=2 WtCom= 0.00D+00 WtEn= 1.00D+00
 EnCoef did     1 forward-backward iterations
 Coeff-En:   0.237D+00 0.832D-01 0.680D+00
 Coeff:      0.237D+00 0.832D-01 0.680D+00
 Gap=     0.163 Goal=   None    Shift=    0.000
 Gap=     0.107 Goal=   None    Shift=    0.000
 RMSDP=8.04D-03 MaxDP=2.72D-01 DE=-1.85D-01 OVMax= 4.60D-01

 Cycle   4  Pass 1  IDiag  1:
 RMSU=  5.97D-03    CP:  6.28D-01  2.61D+00  5.15D-01
 E= -339.719777930825     Delta-E=        0.337553130378 Rises=F Damp=F
 DIIS: error= 5.77D-02 at cycle   4 NSaved=   4.
 NSaved= 4 IEnMin= 3 EnMin= -340.057331061203     IErMin= 2 ErrMin= 1.09D-02
 ErrMax= 5.77D-02  0.00D+00 EMaxC= 1.00D-01 BMatC= 1.68D+00 BMatP= 1.49D-01
 IDIUse=2 WtCom= 0.00D+00 WtEn= 1.00D+00
 EnCoef did     2 forward-backward iterations
 Coeff-En:   0.625D-01 0.000D+00 0.689D+00 0.248D+00
 Coeff:      0.625D-01 0.000D+00 0.689D+00 0.248D+00
 Gap=     0.156 Goal=   None    Shift=    0.000
 Gap=     0.149 Goal=   None    Shift=    0.000
 RMSDP=4.60D-03 MaxDP=1.48D-01 DE= 3.38D-01 OVMax= 3.57D-01

 Cycle   5  Pass 1  IDiag  1:
 RMSU=  2.04D-03    CP:  6.34D-01  2.04D+00  7.54D-01  5.64D-01
 E= -340.135869281716     Delta-E=       -0.416091350891 Rises=F Damp=F
 DIIS: error= 1.71D-02 at cycle   5 NSaved=   5.
 NSaved= 5 IEnMin= 5 EnMin= -340.135869281716     IErMin= 2 ErrMin= 1.09D-02
 ErrMax= 1.71D-02  0.00D+00 EMaxC= 1.00D-01 BMatC= 1.59D-01 BMatP= 1.49D-01
 IDIUse=3 WtCom= 8.29D-01 WtEn= 1.71D-01
 Coeff-Com: -0.114D+00 0.241D+00 0.347D+00-0.488D-01 0.576D+00
 Coeff-En:   0.000D+00 0.000D+00 0.272D+00 0.000D+00 0.728D+00
 Coeff:     -0.944D-01 0.199D+00 0.334D+00-0.405D-01 0.602D+00
 Gap=     0.181 Goal=   None    Shift=    0.000
 Gap=     0.125 Goal=   None    Shift=    0.000
 RMSDP=2.18D-03 MaxDP=5.88D-02 DE=-4.16D-01 OVMax= 8.33D-02

 Cycle   6  Pass 1  IDiag  1:
 RMSU=  8.79D-04    CP:  6.23D-01  2.09D+00  8.37D-01  3.22D-01  6.94D-01
 E= -340.165015837676     Delta-E=       -0.029146555960 Rises=F Damp=F
 DIIS: error= 3.68D-03 at cycle   6 NSaved=   6.
 NSaved= 6 IEnMin= 6 EnMin= -340.165015837676     IErMin= 6 ErrMin= 3.68D-03
 ErrMax= 3.68D-03  0.00D+00 EMaxC= 1.00D-01 BMatC= 1.54D-02 BMatP= 1.49D-01
 IDIUse=3 WtCom= 9.63D-01 WtEn= 3.68D-02
 Coeff-Com: -0.103D+00 0.134D+00 0.121D+00-0.439D-01 0.385D+00 0.507D+00
 Coeff-En:   0.000D+00 0.000D+00 0.000D+00 0.000D+00 0.136D+00 0.864D+00
 Coeff:     -0.992D-01 0.129D+00 0.117D+00-0.423D-01 0.376D+00 0.520D+00
 Gap=     0.175 Goal=   None    Shift=    0.000
 Gap=     0.124 Goal=   None    Shift=    0.000
 RMSDP=6.34D-04 MaxDP=2.07D-02 DE=-2.91D-02 OVMax= 1.88D-02

 Cycle   7  Pass 1  IDiag  1:
 RMSU=  3.34D-04    CP:  6.24D-01  2.10D+00  8.22D-01  3.54D-01  8.32D-01
                    CP:  5.58D-01
 E= -340.168606364090     Delta-E=       -0.003590526415 Rises=F Damp=F
 DIIS: error= 2.20D-03 at cycle   7 NSaved=   7.
 NSaved= 7 IEnMin= 7 EnMin= -340.168606364090     IErMin= 7 ErrMin= 2.20D-03
 ErrMax= 2.20D-03  0.00D+00 EMaxC= 1.00D-01 BMatC= 2.84D-03 BMatP= 1.54D-02
 IDIUse=3 WtCom= 9.78D-01 WtEn= 2.20D-02
 Coeff-Com: -0.518D-01 0.612D-01-0.138D-01 0.639D-03 0.408D-01 0.199D+00
 Coeff-Com:  0.764D+00
 Coeff-En:   0.000D+00 0.000D+00 0.000D+00 0.000D+00 0.000D+00 0.000D+00
 Coeff-En:   0.100D+01
 Coeff:     -0.506D-01 0.599D-01-0.135D-01 0.625D-03 0.399D-01 0.195D+00
 Coeff:      0.769D+00
 Gap=     0.170 Goal=   None    Shift=    0.000
 Gap=     0.125 Goal=   None    Shift=    0.000
 RMSDP=2.79D-04 MaxDP=9.02D-03 DE=-3.59D-03 OVMax= 1.60D-02

 Cycle   8  Pass 1  IDiag  1:
 RMSU=  1.89D-04    CP:  6.26D-01  2.12D+00  8.09D-01  3.57D-01  8.43D-01
                    CP:  6.92D-01  1.04D+00
 E= -340.169428965293     Delta-E=       -0.000822601203 Rises=F Damp=F
 DIIS: error= 1.12D-03 at cycle   8 NSaved=   8.
 NSaved= 8 IEnMin= 8 EnMin= -340.169428965293     IErMin= 8 ErrMin= 1.12D-03
 ErrMax= 1.12D-03  0.00D+00 EMaxC= 1.00D-01 BMatC= 8.40D-04 BMatP= 2.84D-03
 IDIUse=3 WtCom= 9.89D-01 WtEn= 1.12D-02
 Coeff-Com: -0.204D-01 0.222D-01-0.447D-01 0.137D-01-0.670D-01 0.562D-02
 Coeff-Com:  0.509D+00 0.582D+00
 Coeff-En:   0.000D+00 0.000D+00 0.000D+00 0.000D+00 0.000D+00 0.000D+00
 Coeff-En:   0.000D+00 0.100D+01
 Coeff:     -0.202D-01 0.219D-01-0.442D-01 0.136D-01-0.662D-01 0.556D-02
 Coeff:      0.503D+00 0.586D+00
 Gap=     0.169 Goal=   None    Shift=    0.000
 Gap=     0.124 Goal=   None    Shift=    0.000
 RMSDP=1.55D-04 MaxDP=6.45D-03 DE=-8.23D-04 OVMax= 6.42D-03

 Cycle   9  Pass 1  IDiag  1:
 RMSU=  9.29D-05    CP:  6.26D-01  2.13D+00  8.08D-01  3.66D-01  8.49D-01
                    CP:  7.13D-01  1.22D+00  6.32D-01
 E= -340.169662543195     Delta-E=       -0.000233577902 Rises=F Damp=F
 DIIS: error= 5.14D-04 at cycle   9 NSaved=   9.
 NSaved= 9 IEnMin= 9 EnMin= -340.169662543195     IErMin= 9 ErrMin= 5.14D-04
 ErrMax= 5.14D-04  0.00D+00 EMaxC= 1.00D-01 BMatC= 1.45D-04 BMatP= 8.40D-04
 IDIUse=3 WtCom= 9.95D-01 WtEn= 5.14D-03
 Coeff-Com: -0.761D-03 0.432D-03-0.764D-02 0.382D-02-0.103D-01-0.396D-01
 Coeff-Com: -0.113D+00 0.171D+00 0.996D+00
 Coeff-En:   0.000D+00 0.000D+00 0.000D+00 0.000D+00 0.000D+00 0.000D+00
 Coeff-En:   0.000D+00 0.000D+00 0.100D+01
 Coeff:     -0.757D-03 0.430D-03-0.760D-02 0.380D-02-0.103D-01-0.394D-01
 Coeff:     -0.112D+00 0.170D+00 0.996D+00
 Gap=     0.168 Goal=   None    Shift=    0.000
 Gap=     0.124 Goal=   None    Shift=    0.000
 RMSDP=8.51D-05 MaxDP=2.19D-03 DE=-2.34D-04 OVMax= 6.02D-03

 Cycle  10  Pass 1  IDiag  1:
 RMSU=  4.27D-05    CP:  6.26D-01  2.13D+00  8.03D-01  3.71D-01  8.54D-01
                    CP:  7.24D-01  1.30D+00  8.41D-01  1.06D+00
 E= -340.169716928721     Delta-E=       -0.000054385526 Rises=F Damp=F
 DIIS: error= 1.35D-04 at cycle  10 NSaved=  10.
 NSaved=10 IEnMin=10 EnMin= -340.169716928721     IErMin=10 ErrMin= 1.35D-04
 ErrMax= 1.35D-04  0.00D+00 EMaxC= 1.00D-01 BMatC= 6.14D-06 BMatP= 1.45D-04
 IDIUse=3 WtCom= 9.99D-01 WtEn= 1.35D-03
 Coeff-Com:  0.616D-03-0.291D-03 0.152D-02 0.150D-03 0.439D-02-0.200D-01
 Coeff-Com: -0.112D+00 0.300D-01 0.554D+00 0.542D+00
 Coeff-En:   0.000D+00 0.000D+00 0.000D+00 0.000D+00 0.000D+00 0.000D+00
 Coeff-En:   0.000D+00 0.000D+00 0.000D+00 0.100D+01
 Coeff:      0.615D-03-0.291D-03 0.152D-02 0.150D-03 0.438D-02-0.200D-01
 Coeff:     -0.112D+00 0.300D-01 0.553D+00 0.542D+00
 Gap=     0.168 Goal=   None    Shift=    0.000
 Gap=     0.124 Goal=   None    Shift=    0.000
 RMSDP=2.48D-05 MaxDP=7.38D-04 DE=-5.44D-05 OVMax= 1.22D-03

 Cycle  11  Pass 1  IDiag  1:
 RMSU=  1.86D-05    CP:  6.26D-01  2.13D+00  8.02D-01  3.71D-01  8.55D-01
                    CP:  7.26D-01  1.30D+00  8.64D-01  1.13D+00  9.49D-01
 E= -340.169719157782     Delta-E=       -0.000002229060 Rises=F Damp=F
 DIIS: error= 5.75D-05 at cycle  11 NSaved=  11.
 NSaved=11 IEnMin=11 EnMin= -340.169719157782     IErMin=11 ErrMin= 5.75D-05
 ErrMax= 5.75D-05  0.00D+00 EMaxC= 1.00D-01 BMatC= 1.26D-06 BMatP= 6.14D-06
 IDIUse=1 WtCom= 1.00D+00 WtEn= 0.00D+00
 Coeff-Com:  0.107D-02-0.839D-03 0.146D-02-0.451D-03 0.221D-02-0.769D-02
 Coeff-Com: -0.454D-01-0.718D-02 0.159D+00 0.287D+00 0.611D+00
 Coeff:      0.107D-02-0.839D-03 0.146D-02-0.451D-03 0.221D-02-0.769D-02
 Coeff:     -0.454D-01-0.718D-02 0.159D+00 0.287D+00 0.611D+00
 Gap=     0.168 Goal=   None    Shift=    0.000
 Gap=     0.124 Goal=   None    Shift=    0.000
 RMSDP=1.31D-05 MaxDP=3.87D-04 DE=-2.23D-06 OVMax= 5.30D-04

 Cycle  12  Pass 1  IDiag  1:
 RMSU=  7.81D-06    CP:  6.26D-01  2.13D+00  8.02D-01  3.71D-01  8.55D-01
                    CP:  7.25D-01  1.31D+00  8.74D-01  1.21D+00  1.10D+00
                    CP:  1.02D+00
 E= -340.169719796199     Delta-E=       -0.000000638417 Rises=F Damp=F
 DIIS: error= 3.04D-05 at cycle  12 NSaved=  12.
 NSaved=12 IEnMin=12 EnMin= -340.169719796199     IErMin=12 ErrMin= 3.04D-05
 ErrMax= 3.04D-05  0.00D+00 EMaxC= 1.00D-01 BMatC= 4.86D-07 BMatP= 1.26D-06
 IDIUse=1 WtCom= 1.00D+00 WtEn= 0.00D+00
 Coeff-Com: -0.240D-04-0.409D-03-0.242D-03-0.102D-03-0.165D-02 0.935D-02
 Coeff-Com:  0.508D-01-0.114D-01-0.237D+00-0.225D+00 0.767D-01 0.134D+01
 Coeff:     -0.240D-04-0.409D-03-0.242D-03-0.102D-03-0.165D-02 0.935D-02
 Coeff:      0.508D-01-0.114D-01-0.237D+00-0.225D+00 0.767D-01 0.134D+01
 Gap=     0.168 Goal=   None    Shift=    0.000
 Gap=     0.124 Goal=   None    Shift=    0.000
 RMSDP=1.72D-05 MaxDP=3.94D-04 DE=-6.38D-07 OVMax= 8.63D-04

 Cycle  13  Pass 1  IDiag  1:
 RMSU=  5.12D-06    CP:  6.26D-01  2.13D+00  8.03D-01  3.71D-01  8.54D-01
                    CP:  7.26D-01  1.31D+00  8.89D-01  1.28D+00  1.32D+00
                    CP:  1.48D+00  1.73D+00
 E= -340.169720362583     Delta-E=       -0.000000566384 Rises=F Damp=F
 DIIS: error= 1.76D-05 at cycle  13 NSaved=  13.
 NSaved=13 IEnMin=13 EnMin= -340.169720362583     IErMin=13 ErrMin= 1.76D-05
 ErrMax= 1.76D-05  0.00D+00 EMaxC= 1.00D-01 BMatC= 1.14D-07 BMatP= 4.86D-07
 IDIUse=1 WtCom= 1.00D+00 WtEn= 0.00D+00
 Coeff-Com: -0.203D-03-0.718D-04-0.587D-03 0.671D-04-0.161D-02 0.700D-02
 Coeff-Com:  0.384D-01-0.173D-02-0.166D+00-0.199D+00-0.136D+00 0.671D+00
 Coeff-Com:  0.790D+00
 Coeff:     -0.203D-03-0.718D-04-0.587D-03 0.671D-04-0.161D-02 0.700D-02
 Coeff:      0.384D-01-0.173D-02-0.166D+00-0.199D+00-0.136D+00 0.671D+00
 Coeff:      0.790D+00
 Gap=     0.168 Goal=   None    Shift=    0.000
 Gap=     0.124 Goal=   None    Shift=    0.000
 RMSDP=8.47D-06 MaxDP=2.23D-04 DE=-5.66D-07 OVMax= 3.67D-04

 Cycle  14  Pass 1  IDiag  1:
 RMSU=  2.88D-06    CP:  6.26D-01  2.13D+00  8.03D-01  3.71D-01  8.54D-01
                    CP:  7.26D-01  1.32D+00  8.99D-01  1.30D+00  1.43D+00
                    CP:  1.70D+00  2.18D+00  1.13D+00
 E= -340.169720481205     Delta-E=       -0.000000118622 Rises=F Damp=F
 DIIS: error= 7.06D-06 at cycle  14 NSaved=  14.
 NSaved=14 IEnMin=14 EnMin= -340.169720481205     IErMin=14 ErrMin= 7.06D-06
 ErrMax= 7.06D-06  0.00D+00 EMaxC= 1.00D-01 BMatC= 2.25D-08 BMatP= 1.14D-07
 IDIUse=1 WtCom= 1.00D+00 WtEn= 0.00D+00
 Coeff-Com: -0.473D-04 0.506D-04-0.318D-03 0.680D-04-0.508D-03 0.599D-03
 Coeff-Com:  0.399D-02 0.302D-02-0.167D-01-0.381D-01-0.897D-01-0.643D-01
 Coeff-Com:  0.398D+00 0.804D+00
 Coeff:     -0.473D-04 0.506D-04-0.318D-03 0.680D-04-0.508D-03 0.599D-03
 Coeff:      0.399D-02 0.302D-02-0.167D-01-0.381D-01-0.897D-01-0.643D-01
 Coeff:      0.398D+00 0.804D+00
 Gap=     0.168 Goal=   None    Shift=    0.000
 Gap=     0.124 Goal=   None    Shift=    0.000
 RMSDP=4.06D-06 MaxDP=1.07D-04 DE=-1.19D-07 OVMax= 2.07D-04

 Cycle  15  Pass 1  IDiag  1:
 RMSU=  1.48D-06    CP:  6.26D-01  2.13D+00  8.03D-01  3.71D-01  8.54D-01
                    CP:  7.26D-01  1.32D+00  9.04D-01  1.31D+00  1.48D+00
                    CP:  1.80D+00  2.39D+00  1.34D+00  1.07D+00
 E= -340.169720500497     Delta-E=       -0.000000019292 Rises=F Damp=F
 DIIS: error= 3.27D-06 at cycle  15 NSaved=  15.
 NSaved=15 IEnMin=15 EnMin= -340.169720500497     IErMin=15 ErrMin= 3.27D-06
 ErrMax= 3.27D-06  0.00D+00 EMaxC= 1.00D-01 BMatC= 7.74D-09 BMatP= 2.25D-08
 IDIUse=1 WtCom= 1.00D+00 WtEn= 0.00D+00
 Coeff-Com:  0.406D-05 0.134D-04 0.272D-04 0.970D-05 0.205D-03-0.788D-03
 Coeff-Com: -0.460D-02 0.962D-04 0.175D-01 0.202D-01 0.157D-01-0.838D-01
 Coeff-Com: -0.697D-01 0.913D-01 0.101D+01
 Coeff:      0.406D-05 0.134D-04 0.272D-04 0.970D-05 0.205D-03-0.788D-03
 Coeff:     -0.460D-02 0.962D-04 0.175D-01 0.202D-01 0.157D-01-0.838D-01
 Coeff:     -0.697D-01 0.913D-01 0.101D+01
 Gap=     0.168 Goal=   None    Shift=    0.000
 Gap=     0.124 Goal=   None    Shift=    0.000
 RMSDP=1.13D-06 MaxDP=4.68D-05 DE=-1.93D-08 OVMax= 5.14D-05

 Cycle  16  Pass 1  IDiag  1:
 RMSU=  5.31D-07    CP:  6.26D-01  2.13D+00  8.03D-01  3.71D-01  8.54D-01
                    CP:  7.26D-01  1.32D+00  9.04D-01  1.32D+00  1.48D+00
                    CP:  1.81D+00  2.44D+00  1.41D+00  1.25D+00  1.24D+00
 E= -340.169720504071     Delta-E=       -0.000000003574 Rises=F Damp=F
 DIIS: error= 8.24D-07 at cycle  16 NSaved=  16.
 NSaved=16 IEnMin=16 EnMin= -340.169720504071     IErMin=16 ErrMin= 8.24D-07
 ErrMax= 8.24D-07  0.00D+00 EMaxC= 1.00D-01 BMatC= 2.70D-10 BMatP= 7.74D-09
 IDIUse=1 WtCom= 1.00D+00 WtEn= 0.00D+00
 Coeff-Com:  0.508D-05-0.191D-05 0.365D-04-0.712D-05 0.476D-04-0.102D-03
 Coeff-Com: -0.525D-03-0.323D-03 0.197D-02 0.491D-02 0.121D-01 0.114D-01
 Coeff-Com: -0.568D-01-0.109D+00-0.114D-01 0.115D+01
 Coeff:      0.508D-05-0.191D-05 0.365D-04-0.712D-05 0.476D-04-0.102D-03
 Coeff:     -0.525D-03-0.323D-03 0.197D-02 0.491D-02 0.121D-01 0.114D-01
 Coeff:     -0.568D-01-0.109D+00-0.114D-01 0.115D+01
 Gap=     0.168 Goal=   None    Shift=    0.000
 Gap=     0.124 Goal=   None    Shift=    0.000
 RMSDP=5.16D-07 MaxDP=1.38D-05 DE=-3.57D-09 OVMax= 2.09D-05

 Cycle  17  Pass 1  IDiag  1:
 RMSU=  1.77D-07    CP:  6.26D-01  2.13D+00  8.03D-01  3.71D-01  8.54D-01
                    CP:  7.26D-01  1.32D+00  9.05D-01  1.31D+00  1.48D+00
                    CP:  1.81D+00  2.44D+00  1.45D+00  1.33D+00  1.45D+00
                    CP:  1.37D+00
 E= -340.169720504389     Delta-E=       -0.000000000318 Rises=F Damp=F
 DIIS: error= 5.14D-07 at cycle  17 NSaved=  17.
 NSaved=17 IEnMin=17 EnMin= -340.169720504389     IErMin=17 ErrMin= 5.14D-07
 ErrMax= 5.14D-07  0.00D+00 EMaxC= 1.00D-01 BMatC= 2.05D-10 BMatP= 2.70D-10
 IDIUse=1 WtCom= 1.00D+00 WtEn= 0.00D+00
 Coeff-Com: -0.210D-05 0.556D-06 0.230D-04-0.753D-05-0.577D-05 0.144D-03
 Coeff-Com:  0.793D-03-0.220D-03-0.293D-02-0.194D-02 0.297D-02 0.258D-01
 Coeff-Com: -0.163D-01-0.864D-01-0.224D+00 0.689D+00 0.613D+00
 Coeff:     -0.210D-05 0.556D-06 0.230D-04-0.753D-05-0.577D-05 0.144D-03
 Coeff:      0.793D-03-0.220D-03-0.293D-02-0.194D-02 0.297D-02 0.258D-01
 Coeff:     -0.163D-01-0.864D-01-0.224D+00 0.689D+00 0.613D+00
 Gap=     0.168 Goal=   None    Shift=    0.000
 Gap=     0.124 Goal=   None    Shift=    0.000
 RMSDP=1.97D-07 MaxDP=5.82D-06 DE=-3.18D-10 OVMax= 7.56D-06

 Cycle  18  Pass 1  IDiag  1:
 RMSU=  9.52D-08    CP:  6.26D-01  2.13D+00  8.03D-01  3.71D-01  8.54D-01
                    CP:  7.26D-01  1.32D+00  9.05D-01  1.31D+00  1.48D+00
                    CP:  1.81D+00  2.44D+00  1.45D+00  1.35D+00  1.52D+00
                    CP:  1.58D+00  8.87D-01
 E= -340.169720504479     Delta-E=       -0.000000000090 Rises=F Damp=F
 DIIS: error= 2.59D-07 at cycle  18 NSaved=  18.
 NSaved=18 IEnMin=18 EnMin= -340.169720504479     IErMin=18 ErrMin= 2.59D-07
 ErrMax= 2.59D-07  0.00D+00 EMaxC= 1.00D-01 BMatC= 3.38D-11 BMatP= 2.05D-10
 IDIUse=1 WtCom= 1.00D+00 WtEn= 0.00D+00
 Coeff-Com: -0.107D-05 0.136D-05-0.123D-05-0.112D-05-0.187D-04 0.564D-04
 Coeff-Com:  0.373D-03 0.102D-04-0.122D-02-0.173D-02-0.246D-02 0.511D-02
 Coeff-Com:  0.982D-02-0.343D-02-0.519D-01-0.798D-01 0.170D+00 0.955D+00
 Coeff:     -0.107D-05 0.136D-05-0.123D-05-0.112D-05-0.187D-04 0.564D-04
 Coeff:      0.373D-03 0.102D-04-0.122D-02-0.173D-02-0.246D-02 0.511D-02
 Coeff:      0.982D-02-0.343D-02-0.519D-01-0.798D-01 0.170D+00 0.955D+00
 Gap=     0.168 Goal=   None    Shift=    0.000
 Gap=     0.124 Goal=   None    Shift=    0.000
 RMSDP=7.56D-08 MaxDP=2.23D-06 DE=-9.03D-11 OVMax= 3.83D-06

 Cycle  19  Pass 1  IDiag  1:
 RMSU=  2.72D-08    CP:  6.26D-01  2.13D+00  8.03D-01  3.71D-01  8.54D-01
                    CP:  7.26D-01  1.32D+00  9.04D-01  1.31D+00  1.48D+00
                    CP:  1.81D+00  2.44D+00  1.45D+00  1.36D+00  1.54D+00
                    CP:  1.66D+00  1.00D+00  1.11D+00
 E= -340.169720504497     Delta-E=       -0.000000000018 Rises=F Damp=F
 DIIS: error= 5.98D-08 at cycle  19 NSaved=  19.
 NSaved=19 IEnMin=19 EnMin= -340.169720504497     IErMin=19 ErrMin= 5.98D-08
 ErrMax= 5.98D-08  0.00D+00 EMaxC= 1.00D-01 BMatC= 1.30D-12 BMatP= 3.38D-11
 IDIUse=1 WtCom= 1.00D+00 WtEn= 0.00D+00
 Coeff-Com: -0.421D-07-0.119D-06-0.140D-05 0.429D-06 0.264D-05-0.102D-04
 Coeff-Com: -0.761D-04 0.563D-05 0.259D-03 0.238D-03-0.454D-03-0.234D-02
 Coeff-Com:  0.217D-02 0.717D-02 0.198D-01-0.690D-01-0.607D-01 0.683D-01
 Coeff-Com:  0.103D+01
 Coeff:     -0.421D-07-0.119D-06-0.140D-05 0.429D-06 0.264D-05-0.102D-04
 Coeff:     -0.761D-04 0.563D-05 0.259D-03 0.238D-03-0.454D-03-0.234D-02
 Coeff:      0.217D-02 0.717D-02 0.198D-01-0.690D-01-0.607D-01 0.683D-01
 Coeff:      0.103D+01
 Gap=     0.168 Goal=   None    Shift=    0.000
 Gap=     0.124 Goal=   None    Shift=    0.000
 RMSDP=1.63D-08 MaxDP=6.20D-07 DE=-1.80D-11 OVMax= 6.57D-07

 Cycle  20  Pass 1  IDiag  1:
 RMSU=  9.81D-09    CP:  6.26D-01  2.13D+00  8.03D-01  3.71D-01  8.54D-01
                    CP:  7.26D-01  1.32D+00  9.04D-01  1.31D+00  1.48D+00
                    CP:  1.81D+00  2.44D+00  1.45D+00  1.35D+00  1.54D+00
                    CP:  1.66D+00  1.03D+00  1.19D+00  1.11D+00
 E= -340.169720504492     Delta-E=        0.000000000004 Rises=F Damp=F
 DIIS: error= 1.86D-08 at cycle  20 NSaved=  20.
 NSaved=20 IEnMin=19 EnMin= -340.169720504497     IErMin=20 ErrMin= 1.86D-08
 ErrMax= 1.86D-08  0.00D+00 EMaxC= 1.00D-01 BMatC= 1.55D-13 BMatP= 1.30D-12
 IDIUse=1 WtCom= 1.00D+00 WtEn= 0.00D+00
 Coeff-Com:  0.108D-06-0.687D-07 0.251D-06 0.510D-07 0.123D-05-0.338D-05
 Coeff-Com: -0.171D-04-0.675D-05 0.648D-04 0.118D-03 0.463D-03 0.646D-04
 Coeff-Com: -0.173D-02-0.173D-02-0.652D-03 0.307D-01-0.583D-03-0.130D+00
 Coeff-Com: -0.315D+00 0.142D+01
 Coeff:      0.108D-06-0.687D-07 0.251D-06 0.510D-07 0.123D-05-0.338D-05
 Coeff:     -0.171D-04-0.675D-05 0.648D-04 0.118D-03 0.463D-03 0.646D-04
 Coeff:     -0.173D-02-0.173D-02-0.652D-03 0.307D-01-0.583D-03-0.130D+00
 Coeff:     -0.315D+00 0.142D+01
 Gap=     0.168 Goal=   None    Shift=    0.000
 Gap=     0.124 Goal=   None    Shift=    0.000
 RMSDP=9.46D-09 MaxDP=2.29D-07 DE= 4.32D-12 OVMax= 3.09D-07

 SCF Done:  E(UB3LYP) =  -340.169720504     A.U. after   20 cycles
            NFock= 20  Conv=0.95D-08     -V/T= 2.0068
 <Sx>= 0.0000 <Sy>= 0.0000 <Sz>= 0.5000 <S**2>= 0.7625 S= 0.5062
 <L.S>= 0.000000000000E+00
 KE= 3.378705144497D+02 PE=-1.382347186785D+03 EE= 4.023464250216D+02
 Annihilation of the first spin contaminant:
 S**2 before annihilation     0.7625,   after     0.7501
 Leave Link  502 at Sat Nov  5 19:17:02 2016, MaxMem=   524288000 cpu:             852.1 elap:             121.7
 (Enter /home/ubuntu/g16/l601.exe)
 Copying SCF densities to generalized density rwf, IOpCl= 1 IROHF=0.

 **********************************************************************

            Population analysis using the SCF density.

 **********************************************************************

 Orbital symmetries:
 Alpha Orbitals:
       Occupied  (A) (A) (A) (A) (A) (A) (A) (A) (A) (A) (A) (A)
                 (A) (A) (A) (A) (A) (A) (A) (A) (A) (A) (A) (A)
                 (A) (A) (A)
       Virtual   (A) (A) (A) (A) (A) (A) (A) (A) (A) (A) (A) (A)
                 (A) (A) (A) (A) (A) (A) (A) (A) (A) (A) (A) (A)
                 (A) (A) (A) (A) (A) (A) (A) (A) (A) (A) (A) (A)
                 (A) (A) (A) (A) (A) (A) (A) (A) (A) (A) (A) (A)
                 (A) (A) (A) (A) (A) (A) (A) (A) (A) (A) (A) (A)
                 (A) (A) (A) (A) (A) (A) (A) (A) (A) (A) (A) (A)
                 (A) (A) (A) (A) (A) (A) (A) (A) (A) (A) (A) (A)
                 (A) (A) (A) (A) (A) (A) (A) (A) (A) (A) (A) (A)
                 (A) (A) (A) (A) (A) (A) (A) (A) (A) (A) (A) (A)
                 (A) (A) (A) (A) (A) (A) (A) (A) (A) (A) (A) (A)
                 (A) (A) (A) (A) (A) (A) (A) (A) (A) (A) (A) (A)
                 (A) (A) (A) (A) (A) (A) (A) (A) (A) (A) (A) (A)
                 (A) (A) (A) (A) (A) (A) (A) (A) (A) (A) (A) (A)
                 (A) (A) (A) (A) (A) (A) (A) (A) (A) (A) (A) (A)
                 (A) (A) (A) (A) (A) (A) (A) (A) (A) (A) (A) (A)
                 (A) (A) (A) (A) (A) (A) (A) (A) (A) (A) (A) (A)
                 (A)
 Beta  Orbitals:
       Occupied  (A) (A) (A) (A) (A) (A) (A) (A) (A) (A) (A) (A)
                 (A) (A) (A) (A) (A) (A) (A) (A) (A) (A) (A) (A)
                 (A) (A)
       Virtual   (A) (A) (A) (A) (A) (A) (A) (A) (A) (A) (A) (A)
                 (A) (A) (A) (A) (A) (A) (A) (A) (A) (A) (A) (A)
                 (A) (A) (A) (A) (A) (A) (A) (A) (A) (A) (A) (A)
                 (A) (A) (A) (A) (A) (A) (A) (A) (A) (A) (A) (A)
                 (A) (A) (A) (A) (A) (A) (A) (A) (A) (A) (A) (A)
                 (A) (A) (A) (A) (A) (A) (A) (A) (A) (A) (A) (A)
                 (A) (A) (A) (A) (A) (A) (A) (A) (A) (A) (A) (A)
                 (A) (A) (A) (A) (A) (A) (A) (A) (A) (A) (A) (A)
                 (A) (A) (A) (A) (A) (A) (A) (A) (A) (A) (A) (A)
                 (A) (A) (A) (A) (A) (A) (A) (A) (A) (A) (A) (A)
                 (A) (A) (A) (A) (A) (A) (A) (A) (A) (A) (A) (A)
                 (A) (A) (A) (A) (A) (A) (A) (A) (A) (A) (A) (A)
                 (A) (A) (A) (A) (A) (A) (A) (A) (A) (A) (A) (A)
                 (A) (A) (A) (A) (A) (A) (A) (A) (A) (A) (A) (A)
                 (A) (A) (A) (A) (A) (A) (A) (A) (A) (A) (A) (A)
                 (A) (A) (A) (A) (A) (A) (A) (A) (A) (A) (A) (A)
                 (A) (A)
 The electronic state is 2-A.
     Natural Orbital Coefficients:
                           1         2         3         4         5
     Eigenvalues --     2.00000   2.00000   2.00000   2.00000   2.00000
   1 1   C  1S          0.00976  -0.00290  -0.12710   0.14466  -0.00035
   2        2S         -0.00016  -0.00014  -0.00235   0.00444  -0.00093
   3        3S          0.03907   0.02826   0.03714  -0.02099   0.00336
   4        4S          0.04969   0.03223  -0.04211  -0.00988   0.06169
   5        5PX        -0.00053   0.00147  -0.00114   0.00138   0.00019
   6        5PY        -0.00007  -0.00001   0.00217  -0.00239  -0.00016
   7        5PZ        -0.00000   0.00000   0.00000   0.00000  -0.00000
   8        6PX         0.02269   0.02189   0.01281  -0.01144  -0.00810
   9        6PY        -0.00569  -0.00024  -0.03513   0.02738  -0.00442
  10        6PZ         0.00000   0.00001  -0.00001   0.00001   0.00000
  11        7PX        -0.00357  -0.00583   0.00934  -0.00387  -0.00400
  12        7PY         0.00757   0.00640  -0.04928   0.02483   0.00628
  13        7PZ         0.00000   0.00000   0.00000   0.00000   0.00000
  14        8D 0        0.00007  -0.00054  -0.00049   0.00073   0.00010
  15        8D+1       -0.00000  -0.00000   0.00000   0.00000  -0.00000
  16        8D-1       -0.00000   0.00000   0.00000   0.00000   0.00000
  17        8D+2       -0.00136   0.00075  -0.00015   0.00071   0.00011
  18        8D-2       -0.00001   0.00008  -0.00082   0.00071   0.00023
  19        9D 0       -0.00429  -0.00210  -0.00100   0.00138  -0.00066
  20        9D+1        0.00001   0.00001  -0.00000  -0.00000   0.00000
  21        9D-1       -0.00000  -0.00000  -0.00001   0.00000   0.00000
  22        9D+2        0.00041   0.00271  -0.02985   0.00023   0.01936
  23        9D-2        0.00061   0.00074   0.01261  -0.00917   0.00425
  24 2   N  1S          0.99589  -0.09040   0.01734   0.00246   0.00038
  25        2S          0.02647  -0.00634   0.00034  -0.00088  -0.00039
  26        3S         -0.07517   0.07129   0.01344  -0.00381  -0.00612
  27        4S         -0.05437   0.03307   0.01064  -0.00448  -0.00242
  28        5PX        -0.00069  -0.00475  -0.00164  -0.00024  -0.00033
  29        5PY        -0.00044   0.00023   0.00111  -0.00097   0.00061
  30        5PZ        -0.00000  -0.00001  -0.00000  -0.00000  -0.00000
  31        6PX        -0.01088   0.06221   0.00241  -0.01051   0.00510
  32        6PY         0.00056  -0.00267  -0.00036   0.00089  -0.00007
  33        6PZ        -0.00002   0.00007  -0.00000  -0.00001   0.00001
  34        7PX        -0.00217   0.02117  -0.01168  -0.01265   0.01663
  35        7PY         0.00012  -0.00102   0.00113   0.00131   0.00107
  36        7PZ        -0.00001   0.00002  -0.00001  -0.00001   0.00001
  37        8D 0       -0.00054   0.00112  -0.00024   0.00013   0.00007
  38        8D+1        0.00000  -0.00000   0.00000  -0.00000  -0.00000
  39        8D-1       -0.00000   0.00000  -0.00000   0.00000   0.00000
  40        8D+2        0.00128  -0.00170   0.00032  -0.00020  -0.00013
  41        8D-2       -0.00009   0.00015  -0.00011   0.00005   0.00004
  42        9D 0        0.00636  -0.00382   0.00161   0.00124  -0.00146
  43        9D+1       -0.00002   0.00002  -0.00000  -0.00000   0.00000
  44        9D-1        0.00000  -0.00000   0.00000  -0.00000  -0.00000
  45        9D+2       -0.01260   0.00528  -0.00074  -0.00281   0.00169
  46        9D-2        0.00052  -0.00089  -0.00049   0.00096   0.00031
  47 3   N  1S          0.09168   0.99736   0.00794  -0.00055   0.00079
  48        2S         -0.00022   0.02259   0.00043   0.00015  -0.00017
  49        3S          0.04044  -0.11103  -0.00321   0.01322  -0.00544
  50        4S          0.03271  -0.05244   0.00631   0.01702  -0.01816
  51        5PX         0.00513  -0.00516   0.00155   0.00101   0.00051
  52        5PY        -0.00060   0.00026   0.00078  -0.00058   0.00051
  53        5PZ         0.00001  -0.00001   0.00000   0.00000   0.00000
  54        6PX        -0.01655   0.05303   0.00285  -0.00540   0.00259
  55        6PY         0.00110  -0.00208   0.00031  -0.00053  -0.00024
  56        6PZ        -0.00002   0.00007   0.00000  -0.00001   0.00001
  57        7PX        -0.00721   0.00938   0.00045  -0.00176   0.00155
  58        7PY         0.00032  -0.00046   0.00053  -0.00029  -0.00084
  59        7PZ        -0.00001   0.00001   0.00000  -0.00000   0.00000
  60        8D 0        0.00091  -0.00053   0.00012   0.00003   0.00001
  61        8D+1       -0.00000   0.00000  -0.00000   0.00000  -0.00000
  62        8D-1        0.00000  -0.00000  -0.00000   0.00000  -0.00000
  63        8D+2       -0.00157   0.00095  -0.00022  -0.00008   0.00000
  64        8D-2        0.00018  -0.00010  -0.00011   0.00011  -0.00005
  65        9D 0       -0.00103   0.00700   0.00005  -0.00029   0.00020
  66        9D+1        0.00001  -0.00003  -0.00000   0.00000  -0.00000
  67        9D-1       -0.00000   0.00000  -0.00000   0.00000   0.00000
  68        9D+2        0.00224  -0.01165  -0.00068   0.00090  -0.00019
  69        9D-2       -0.00046   0.00090   0.00004   0.00014   0.00016
  70 4   C  1S          0.00060  -0.00027   0.00356  -0.00247  -0.00540
  71        2S         -0.00048  -0.00023   0.00091   0.00012  -0.00021
  72        3S          0.00871   0.00705  -0.06021   0.00999   0.01376
  73        4S         -0.00604  -0.00414  -0.02799  -0.00773   0.00867
  74        5PX        -0.00014   0.00004   0.00007  -0.00026   0.00036
  75        5PY        -0.00047  -0.00010   0.00005  -0.00009  -0.00009
  76        5PZ        -0.00000   0.00000   0.00000   0.00000  -0.00000
  77        6PX        -0.02026  -0.00756  -0.02574   0.01973   0.00413
  78        6PY        -0.00446  -0.00120  -0.02742   0.01561  -0.00829
  79        6PZ         0.00000   0.00000  -0.00000  -0.00001   0.00001
  80        7PX         0.00397   0.00465  -0.02332   0.02318  -0.00387
  81        7PY         0.00034   0.00116  -0.01107   0.01443  -0.00340
  82        7PZ         0.00000   0.00000   0.00000  -0.00000   0.00000
  83        8D 0       -0.00002  -0.00007  -0.00017  -0.00012   0.00038
  84        8D+1        0.00000   0.00000   0.00000   0.00000   0.00000
  85        8D-1        0.00000   0.00000   0.00000   0.00000  -0.00000
  86        8D+2        0.00030   0.00028  -0.00043   0.00047  -0.00029
  87        8D-2       -0.00037   0.00013  -0.00057   0.00012   0.00061
  88        9D 0        0.00137   0.00055   0.00021  -0.00003  -0.00052
  89        9D+1       -0.00001  -0.00000  -0.00000   0.00000  -0.00000
  90        9D-1       -0.00000  -0.00000  -0.00000  -0.00000   0.00000
  91        9D+2        0.00194   0.00057   0.00531  -0.00712   0.00575
  92        9D-2       -0.00569  -0.00192  -0.00629   0.00323   0.00582
  93 5   C  1S         -0.00108   0.00164  -0.00518  -0.09603   0.40259
  94        2S         -0.00016   0.00001   0.00134  -0.00256   0.01173
  95        3S          0.00014  -0.00038  -0.06066   0.01743  -0.03009
  96        4S         -0.01362  -0.00384   0.00630   0.01803  -0.00711
  97        5PX        -0.00019  -0.00006  -0.00045  -0.00044   0.00254
  98        5PY        -0.00003  -0.00004   0.00028   0.00126  -0.00256
  99        5PZ         0.00000  -0.00000   0.00000   0.00000  -0.00000
 100        6PX        -0.01765  -0.00571   0.01482   0.01895  -0.00342
 101        6PY         0.01179   0.00550  -0.02580  -0.00560   0.00914
 102        6PZ         0.00002   0.00000  -0.00003  -0.00001  -0.00000
 103        7PX         0.00191   0.00284  -0.01561   0.02551  -0.00253
 104        7PY        -0.00632  -0.00397   0.00917  -0.01390   0.00561
 105        7PZ        -0.00001  -0.00000   0.00001  -0.00002  -0.00000
 106        8D 0        0.00004   0.00002   0.00014  -0.00004   0.00032
 107        8D+1       -0.00000   0.00000   0.00000   0.00000   0.00000
 108        8D-1        0.00000   0.00000  -0.00000   0.00000  -0.00000
 109        8D+2       -0.00013  -0.00007  -0.00030  -0.00043   0.00043
 110        8D-2       -0.00031  -0.00001  -0.00021  -0.00026   0.00145
 111        9D 0       -0.00059  -0.00002  -0.00021  -0.00035   0.00154
 112        9D+1        0.00000   0.00000  -0.00000   0.00000  -0.00000
 113        9D-1        0.00001   0.00000  -0.00001   0.00000  -0.00000
 114        9D+2       -0.00679  -0.00338   0.00504   0.00100  -0.00159
 115        9D-2       -0.00334  -0.00047   0.00958   0.00275   0.00188
 116 6   C  1S          0.00295  -0.00121  -0.10128  -0.29683   0.85781
 117        2S          0.00046   0.00009  -0.00074  -0.00825   0.02508
 118        3S         -0.01345  -0.00507  -0.02378   0.04817  -0.10518
 119        4S          0.01484   0.00391  -0.03173   0.00080  -0.07709
 120        5PX        -0.00030  -0.00012   0.00054   0.00105   0.00161
 121        5PY        -0.00015  -0.00002   0.00164   0.00165   0.00110
 122        5PZ         0.00000  -0.00000  -0.00000  -0.00000  -0.00000
 123        6PX        -0.00874  -0.00388  -0.00776  -0.00196  -0.02770
 124        6PY         0.01388   0.00524  -0.07384   0.00582  -0.04207
 125        6PZ         0.00001   0.00001   0.00000  -0.00001   0.00004
 126        7PX         0.00442   0.00077  -0.01067  -0.00527  -0.01435
 127        7PY        -0.00555  -0.00403   0.01365  -0.01804  -0.00972
 128        7PZ        -0.00000  -0.00000   0.00002  -0.00000   0.00002
 129        8D 0        0.00016   0.00004  -0.00024  -0.00034  -0.00052
 130        8D+1        0.00000   0.00000   0.00000   0.00000  -0.00000
 131        8D-1       -0.00000  -0.00000  -0.00000  -0.00000  -0.00000
 132        8D+2        0.00007  -0.00007  -0.00057  -0.00090   0.00029
 133        8D-2        0.00004   0.00001   0.00096   0.00027   0.00051
 134        9D 0        0.00038  -0.00009   0.00079  -0.00130   0.00794
 135        9D+1        0.00000   0.00000  -0.00001  -0.00000   0.00002
 136        9D-1       -0.00001  -0.00000   0.00003   0.00000   0.00002
 137        9D+2       -0.00020  -0.00108   0.00370  -0.00613   0.00471
 138        9D-2        0.00452   0.00205  -0.02103   0.00025  -0.01074
 139 7   C  1S          0.01491   0.00482  -0.77319  -0.57471  -0.26353
 140        2S          0.00030  -0.00006  -0.02380  -0.02067  -0.01163
 141        3S         -0.00104  -0.00242   0.08873   0.08347   0.06949
 142        4S         -0.00531   0.00562   0.05414   0.08862   0.05683
 143        5PX         0.00006   0.00003   0.00366  -0.00535   0.00122
 144        5PY         0.00013  -0.00007  -0.00043  -0.00055   0.00379
 145        5PZ        -0.00000  -0.00000  -0.00000   0.00001  -0.00000
 146        6PX         0.00821   0.00336  -0.03914   0.06376  -0.02155
 147        6PY         0.00303   0.00113  -0.03044   0.00034  -0.05334
 148        6PZ        -0.00001  -0.00001   0.00005  -0.00005   0.00002
 149        7PX        -0.00619  -0.00194   0.02000   0.00802  -0.00186
 150        7PY        -0.00157  -0.00193   0.00031  -0.01822  -0.02443
 151        7PZ         0.00000   0.00000  -0.00003   0.00000   0.00000
 152        8D 0        0.00000  -0.00002   0.00017   0.00071   0.00074
 153        8D+1       -0.00000   0.00000  -0.00000   0.00000   0.00000
 154        8D-1       -0.00000   0.00000  -0.00000  -0.00000   0.00000
 155        8D+2       -0.00001  -0.00003   0.00076  -0.00126   0.00039
 156        8D-2        0.00030  -0.00004   0.00062   0.00055  -0.00110
 157        9D 0       -0.00082  -0.00037  -0.00577  -0.00626  -0.00482
 158        9D+1       -0.00000  -0.00000   0.00001  -0.00002  -0.00000
 159        9D-1       -0.00000  -0.00000  -0.00003   0.00001  -0.00001
 160        9D+2        0.00179   0.00015  -0.01624   0.01480  -0.01073
 161        9D-2       -0.00070  -0.00063   0.01690  -0.01094   0.00802
 162 8   C  1S          0.00828   0.00486  -0.61535   0.74364   0.18783
 163        2S          0.00042   0.00024  -0.01760   0.02517   0.00647
 164        3S         -0.00562  -0.00094   0.07388  -0.13278   0.01679
 165        4S         -0.01771  -0.01838   0.04591  -0.09682  -0.03806
 166        5PX        -0.00024  -0.00009  -0.00420  -0.00029  -0.00107
 167        5PY         0.00050   0.00002  -0.00089   0.00044  -0.00017
 168        5PZ        -0.00000   0.00000   0.00000   0.00000  -0.00000
 169        6PX         0.00214  -0.00119  -0.02580   0.05205   0.00672
 170        6PY         0.00153   0.00017  -0.02378   0.02750   0.00533
 171        6PZ         0.00000  -0.00000   0.00001  -0.00005   0.00000
 172        7PX        -0.00284   0.00019   0.02585   0.00554  -0.00611
 173        7PY         0.00939   0.00583  -0.01457   0.01985   0.01458
 174        7PZ         0.00000  -0.00000  -0.00001  -0.00002   0.00000
 175        8D 0        0.00007   0.00003  -0.00023  -0.00075  -0.00052
 176        8D+1        0.00000   0.00000  -0.00000  -0.00000  -0.00000
 177        8D-1        0.00000   0.00000   0.00000  -0.00000   0.00000
 178        8D+2        0.00004   0.00021   0.00128   0.00060   0.00041
 179        8D-2        0.00047  -0.00014  -0.00046   0.00073  -0.00035
 180        9D 0        0.00179   0.00098  -0.00293   0.00704   0.00293
 181        9D+1       -0.00000  -0.00000   0.00000   0.00002  -0.00000
 182        9D-1       -0.00001  -0.00000  -0.00001   0.00001   0.00000
 183        9D+2       -0.00500  -0.00161  -0.01007  -0.00680   0.00531
 184        9D-2        0.00241   0.00167   0.01585  -0.00728  -0.00593
 185 9   H  1S          0.00000   0.00002   0.00037   0.00008  -0.00134
 186        2S          0.00297   0.00106  -0.00785  -0.00472   0.01637
 187        3S         -0.00224  -0.00093  -0.00275   0.00089   0.00173
 188        4PX         0.00001   0.00001   0.00010  -0.00009  -0.00017
 189        4PY         0.00014   0.00006   0.00040   0.00023  -0.00088
 190        4PZ         0.00000   0.00000   0.00000   0.00000  -0.00000
 191        5PX         0.00006   0.00000   0.00072  -0.00157   0.00204
 192        5PY         0.00149   0.00065  -0.00141  -0.00057   0.00504
 193        5PZ         0.00000   0.00000  -0.00000   0.00000  -0.00000
 194 10  H  1S          0.00021   0.00015   0.00136   0.00087  -0.00590
 195        2S         -0.00557  -0.00090  -0.00863  -0.01006   0.00371
 196        3S          0.00157   0.00050  -0.00461  -0.00038  -0.00650
 197        4PX         0.00009   0.00006   0.00046   0.00050  -0.00175
 198        4PY         0.00002   0.00002   0.00030   0.00012   0.00016
 199        4PZ        -0.00000   0.00000  -0.00000  -0.00000   0.00000
 200        5PX        -0.00161  -0.00026  -0.00245  -0.00404   0.00200
 201        5PY         0.00048   0.00031  -0.00301  -0.00113  -0.00133
 202        5PZ         0.00000   0.00000   0.00000   0.00000  -0.00000
 203 11  H  1S         -0.00003  -0.00020   0.00178   0.00318   0.00169
 204        2S          0.00446   0.00131  -0.01559  -0.00270   0.01614
 205        3S         -0.00088   0.00042   0.00411   0.00784   0.00826
 206        4PX         0.00000  -0.00001   0.00081   0.00027   0.00040
 207        4PY        -0.00009  -0.00002  -0.00119  -0.00117   0.00001
 208        4PZ         0.00000   0.00000  -0.00000  -0.00000  -0.00000
 209        5PX         0.00157   0.00060  -0.00689   0.00251   0.00080
 210        5PY        -0.00119  -0.00047   0.00258   0.00227  -0.00452
 211        5PZ         0.00000   0.00000   0.00001   0.00000  -0.00000
 212 12  H  1S          0.00004   0.00014   0.00137  -0.00245  -0.00085
 213        2S         -0.00631  -0.00088  -0.02684   0.00024   0.00334
 214        3S         -0.00321  -0.00240  -0.00044  -0.00804  -0.00229
 215        4PX         0.00005  -0.00004  -0.00095   0.00051   0.00017
 216        4PY        -0.00004  -0.00014  -0.00125   0.00131   0.00052
 217        4PZ        -0.00000   0.00000   0.00000  -0.00000  -0.00000
 218        5PX         0.00216   0.00041   0.00399   0.00085   0.00060
 219        5PY         0.00089   0.00004   0.00512  -0.00083   0.00034
 220        5PZ         0.00000   0.00000  -0.00001  -0.00000   0.00000
                           6         7         8         9        10
     Eigenvalues --     2.00000   2.00000   2.00000   2.00000   2.00000
   1 1   C  1S         -0.03536   0.98012   0.00975  -0.01691  -0.01156
   2        2S         -0.00154   0.03501   0.02029   0.01129   0.02491
   3        3S         -0.01865  -0.11500  -0.13382  -0.16695   0.08259
   4        4S          0.01228  -0.08245   0.25710   0.21096  -0.16056
   5        5PX         0.00007   0.00054   0.02051   0.01036   0.05443
   6        5PY         0.00072  -0.00123  -0.00377   0.00227   0.00103
   7        5PZ         0.00000   0.00000   0.00001  -0.00000   0.00001
   8        6PX         0.00006   0.01030   0.24555   0.21283  -0.15036
   9        6PY        -0.02092  -0.04729  -0.02840  -0.13950   0.05063
  10        6PZ        -0.00000   0.00001   0.00015   0.00014  -0.00008
  11        7PX        -0.00025   0.01659  -0.09573  -0.08847   0.02073
  12        7PY        -0.01398  -0.00029   0.03907  -0.00840  -0.03355
  13        7PZ        -0.00001  -0.00000   0.00002   0.00001  -0.00001
  14        8D 0       -0.00012  -0.00080  -0.00039   0.00082  -0.00123
  15        8D+1       -0.00000   0.00000  -0.00000  -0.00000   0.00001
  16        8D-1       -0.00000  -0.00000   0.00000   0.00000   0.00000
  17        8D+2       -0.00001  -0.00015  -0.00170   0.00106   0.00421
  18        8D-2        0.00012  -0.00017   0.00127  -0.00093   0.00371
  19        9D 0       -0.00084   0.01066  -0.01584  -0.01761   0.01077
  20        9D+1       -0.00000  -0.00001   0.00010   0.00008  -0.00005
  21        9D-1        0.00000  -0.00000   0.00001  -0.00000  -0.00000
  22        9D+2        0.01278   0.01263   0.14517   0.16498  -0.09260
  23        9D-2        0.01170   0.01579   0.02397   0.06125  -0.03181
  24 2   N  1S          0.00130  -0.00652   0.10203   0.09363  -0.07346
  25        2S          0.00143   0.00088  -0.24415  -0.22537   0.14841
  26        3S         -0.00298  -0.01655  -0.24670  -0.24358  -0.04386
  27        4S         -0.00698  -0.03232   0.07122   0.07211  -0.11278
  28        5PX         0.00064   0.00528  -0.22071  -0.19455   0.05569
  29        5PY         0.00081  -0.00269   0.02292   0.03047   0.03005
  30        5PZ         0.00000   0.00000  -0.00023  -0.00023   0.00009
  31        6PX         0.00345  -0.01290   0.14950   0.13705  -0.23893
  32        6PY        -0.00110  -0.00313   0.00281   0.00426   0.02966
  33        6PZ         0.00001  -0.00001   0.00012   0.00010  -0.00024
  34        7PX         0.00695  -0.01024   0.17310   0.15593  -0.09992
  35        7PY         0.00149  -0.00144  -0.00328  -0.00554   0.00545
  36        7PZ         0.00001  -0.00001   0.00008   0.00007  -0.00008
  37        8D 0        0.00002   0.00083   0.00575   0.00568  -0.01120
  38        8D+1       -0.00000  -0.00000  -0.00002  -0.00002   0.00004
  39        8D-1        0.00000  -0.00000   0.00000   0.00000   0.00000
  40        8D+2        0.00000  -0.00137  -0.00737  -0.00716   0.01781
  41        8D-2        0.00002  -0.00011   0.00182   0.00219   0.00036
  42        9D 0       -0.00115   0.00275  -0.02830  -0.02801   0.02017
  43        9D+1        0.00000  -0.00000   0.00010   0.00009  -0.00006
  44        9D-1       -0.00000  -0.00000  -0.00000  -0.00000   0.00000
  45        9D+2        0.00169  -0.00609   0.03573   0.03391  -0.02463
  46        9D-2       -0.00018  -0.00090  -0.00584  -0.00581   0.00295
  47 3   N  1S         -0.00217   0.00275  -0.00938  -0.00880  -0.19266
  48        2S         -0.00031   0.00112   0.03263   0.03015   0.45154
  49        3S         -0.00477   0.02095  -0.01037  -0.00904   0.74121
  50        4S         -0.00508   0.02900  -0.16806  -0.15272   0.23955
  51        5PX        -0.00147  -0.00476   0.37127   0.33671   0.11773
  52        5PY         0.00063  -0.00187  -0.00407   0.00643   0.02192
  53        5PZ        -0.00000  -0.00001   0.00048   0.00042   0.00016
  54        6PX         0.00122  -0.01077   0.19871   0.17925  -0.06631
  55        6PY         0.00032   0.00126  -0.00118   0.00442   0.01469
  56        6PZ         0.00000  -0.00002   0.00028   0.00025  -0.00010
  57        7PX         0.00016  -0.00629   0.01657   0.01507  -0.02875
  58        7PY        -0.00041   0.00100  -0.00300  -0.00089   0.00188
  59        7PZ        -0.00000  -0.00001   0.00007   0.00006  -0.00005
  60        8D 0       -0.00010  -0.00028   0.01487   0.01345  -0.00035
  61        8D+1        0.00000   0.00000  -0.00007  -0.00006  -0.00000
  62        8D-1       -0.00000   0.00000   0.00000  -0.00000  -0.00000
  63        8D+2        0.00016   0.00047  -0.02587  -0.02342  -0.00089
  64        8D-2       -0.00009   0.00006   0.00120   0.00010  -0.00252
  65        9D 0        0.00018  -0.00046   0.00660   0.00587  -0.01541
  66        9D+1       -0.00000   0.00001  -0.00004  -0.00003   0.00007
  67        9D-1       -0.00000  -0.00000  -0.00000  -0.00000  -0.00000
  68        9D+2       -0.00023   0.00097  -0.00862  -0.00715   0.02312
  69        9D-2       -0.00004  -0.00079  -0.00028  -0.00075  -0.00258
  70 4   C  1S          0.00302   0.02362  -0.67879   0.73092   0.00154
  71        2S          0.00051   0.00057  -0.01812   0.02459   0.00121
  72        3S         -0.01984  -0.00727   0.15032  -0.11162  -0.01048
  73        4S          0.03284   0.03301   0.08953   0.00777   0.01556
  74        5PX         0.00030  -0.00013  -0.00001   0.00282  -0.00211
  75        5PY        -0.00006  -0.00051   0.00169   0.00133  -0.00246
  76        5PZ        -0.00000   0.00000   0.00000   0.00000   0.00001
  77        6PX         0.01210   0.01527   0.06555   0.14590  -0.06168
  78        6PY        -0.01354  -0.00785   0.06906  -0.01483  -0.02093
  79        6PZ         0.00000  -0.00001  -0.00004  -0.00007   0.00002
  80        7PX        -0.01281  -0.00050   0.00812  -0.00466  -0.01934
  81        7PY         0.00037   0.00875   0.00458  -0.01133   0.00210
  82        7PZ         0.00001   0.00000  -0.00000  -0.00000   0.00000
  83        8D 0        0.00090   0.00078   0.00016   0.00074  -0.00053
  84        8D+1        0.00000   0.00000   0.00000   0.00000  -0.00000
  85        8D-1       -0.00000  -0.00000   0.00000   0.00000  -0.00000
  86        8D+2       -0.00103   0.00073  -0.00054  -0.00085   0.00133
  87        8D-2       -0.00009  -0.00068   0.00046   0.00094   0.00136
  88        9D 0       -0.00165  -0.00178  -0.00405   0.00880  -0.00204
  89        9D+1        0.00000   0.00000   0.00000   0.00001   0.00000
  90        9D-1        0.00000  -0.00000  -0.00001  -0.00002   0.00000
  91        9D+2        0.00309   0.00323  -0.01163  -0.00932   0.00707
  92        9D-2        0.00789   0.00779   0.01613   0.02996  -0.00883
  93 5   C  1S          0.90798   0.04600   0.00236   0.00442  -0.00045
  94        2S          0.03394   0.00057   0.00498  -0.00575   0.00028
  95        3S         -0.12147   0.00860   0.02469   0.03198   0.00321
  96        4S         -0.11107  -0.01574  -0.14417  -0.13649  -0.04565
  97        5PX         0.00078  -0.00029   0.00455   0.00093   0.01284
  98        5PY         0.00056  -0.00013   0.00236   0.00582   0.00199
  99        5PZ        -0.00000   0.00000  -0.00001   0.00000  -0.00001
 100        6PX         0.03628   0.00719  -0.00022   0.10768  -0.04060
 101        6PY        -0.05055   0.00680  -0.01715  -0.05023   0.03675
 102        6PZ        -0.00006  -0.00000   0.00005  -0.00003   0.00004
 103        7PX        -0.01613   0.00289  -0.02788  -0.03294  -0.00245
 104        7PY        -0.02018  -0.00386  -0.02922  -0.02371  -0.00523
 105        7PZ        -0.00000  -0.00000   0.00002   0.00003  -0.00000
 106        8D 0       -0.00104  -0.00034   0.00003   0.00076   0.00052
 107        8D+1       -0.00000   0.00000  -0.00000   0.00000   0.00000
 108        8D-1        0.00000   0.00000  -0.00000  -0.00000  -0.00000
 109        8D+2       -0.00007  -0.00018   0.00131  -0.00107  -0.00204
 110        8D-2       -0.00027   0.00038  -0.00103   0.00020   0.00218
 111        9D 0        0.00918   0.00039   0.00388   0.00011   0.00031
 112        9D+1        0.00001   0.00000   0.00002   0.00001   0.00000
 113        9D-1       -0.00003  -0.00000   0.00005   0.00002  -0.00000
 114        9D+2        0.01254   0.00115   0.01381   0.04661  -0.01746
 115        9D-2        0.01632   0.00476  -0.00648   0.01674  -0.00472
 116 6   C  1S         -0.41079   0.01631  -0.00232   0.00834   0.01126
 117        2S         -0.01537  -0.00114  -0.00311  -0.01276  -0.02446
 118        3S          0.08932   0.02057   0.06625   0.11796  -0.05545
 119        4S          0.08693   0.02618   0.05907   0.11071   0.10806
 120        5PX        -0.00147   0.00125   0.00359   0.02366   0.05398
 121        5PY         0.00242   0.00043  -0.00259   0.00015   0.02176
 122        5PZ         0.00000  -0.00000  -0.00000  -0.00002  -0.00007
 123        6PX         0.03191   0.00111   0.02979   0.02803  -0.03469
 124        6PY        -0.06365   0.00828   0.03631  -0.03599   0.00823
 125        6PZ        -0.00006  -0.00000  -0.00011  -0.00013   0.00009
 126        7PX         0.02623   0.00344   0.01572   0.02539   0.00675
 127        7PY        -0.00098  -0.00106  -0.00814   0.00696   0.01575
 128        7PZ        -0.00003  -0.00000  -0.00004  -0.00005  -0.00000
 129        8D 0        0.00083  -0.00000   0.00015   0.00003   0.00057
 130        8D+1        0.00000   0.00000  -0.00000  -0.00000   0.00001
 131        8D-1       -0.00000  -0.00000  -0.00000  -0.00000   0.00000
 132        8D+2        0.00069  -0.00024   0.00002   0.00073  -0.00303
 133        8D-2        0.00089   0.00008  -0.00038   0.00144  -0.00050
 134        9D 0       -0.00591  -0.00007   0.00240   0.00333  -0.00051
 135        9D+1       -0.00001  -0.00000  -0.00003  -0.00004  -0.00003
 136        9D-1        0.00003  -0.00000  -0.00002   0.00001   0.00000
 137        9D+2       -0.00518  -0.00097   0.00332   0.00167   0.02278
 138        9D-2       -0.01933   0.00252   0.01065  -0.01683   0.00169
 139 7   C  1S          0.05201  -0.01380   0.00063  -0.00238   0.00219
 140        2S          0.00189  -0.00160   0.00734   0.01129  -0.00273
 141        3S          0.02701   0.03303   0.07033   0.19997  -0.03768
 142        4S         -0.04150  -0.02212  -0.14813  -0.16726  -0.06944
 143        5PX        -0.00083  -0.00220  -0.00279   0.04045  -0.03905
 144        5PY        -0.00162   0.00118   0.00819  -0.01865  -0.01121
 145        5PZ         0.00000   0.00000   0.00000  -0.00004   0.00005
 146        6PX        -0.00716   0.03123   0.09454   0.11922  -0.05003
 147        6PY        -0.00923   0.00582   0.05219   0.00709  -0.03525
 148        6PZ         0.00001  -0.00003  -0.00007  -0.00008   0.00006
 149        7PX        -0.00441  -0.00004  -0.04383  -0.02790   0.01300
 150        7PY         0.00941   0.00408   0.00905   0.03543   0.02240
 151        7PZ         0.00000  -0.00000   0.00005   0.00003  -0.00002
 152        8D 0       -0.00049  -0.00042   0.00030  -0.00008   0.00104
 153        8D+1       -0.00000  -0.00000  -0.00000  -0.00000   0.00001
 154        8D-1       -0.00000  -0.00000   0.00000   0.00000   0.00000
 155        8D+2       -0.00011   0.00005  -0.00024   0.00121  -0.00404
 156        8D-2        0.00062  -0.00001   0.00007  -0.00068  -0.00150
 157        9D 0        0.00219   0.00082   0.00233   0.00268   0.00002
 158        9D+1        0.00001  -0.00001  -0.00001  -0.00001   0.00000
 159        9D-1       -0.00000   0.00001  -0.00005  -0.00004   0.00001
 160        9D+2       -0.00362   0.00893   0.03835   0.02501  -0.00399
 161        9D-2        0.00287  -0.00460   0.00541  -0.00447   0.00295
 162 8   C  1S          0.00117  -0.18692  -0.00193   0.00611   0.01439
 163        2S         -0.00095  -0.00879  -0.01314  -0.00063  -0.03229
 164        3S          0.03467   0.04548   0.05542   0.16109  -0.13813
 165        4S          0.02560   0.05117  -0.00347   0.06169   0.09313
 166        5PX         0.00021   0.00126  -0.00740  -0.04503   0.03042
 167        5PY        -0.00100   0.00357  -0.00896  -0.02892   0.00702
 168        5PZ         0.00000  -0.00000   0.00002   0.00004  -0.00001
 169        6PX         0.01194   0.05458   0.15026   0.21414  -0.07384
 170        6PY        -0.01713  -0.04347  -0.10588  -0.14034   0.08718
 171        6PZ        -0.00000  -0.00002  -0.00007  -0.00009   0.00002
 172        7PX         0.00231  -0.00249  -0.02640  -0.00185   0.01041
 173        7PY        -0.00432  -0.01327   0.02224  -0.00570  -0.02636
 174        7PZ         0.00001   0.00001   0.00002   0.00001   0.00000
 175        8D 0        0.00012   0.00060   0.00042  -0.00007  -0.00002
 176        8D+1       -0.00000  -0.00000  -0.00000  -0.00000   0.00000
 177        8D-1       -0.00000  -0.00000   0.00000   0.00000  -0.00000
 178        8D+2       -0.00001   0.00053  -0.00059   0.00091   0.00029
 179        8D-2       -0.00007   0.00094  -0.00104  -0.00066  -0.00119
 180        9D 0        0.00003  -0.00388   0.00474   0.00681  -0.00535
 181        9D+1        0.00000   0.00002   0.00002   0.00003  -0.00001
 182        9D-1       -0.00000   0.00000  -0.00000  -0.00001   0.00000
 183        9D+2       -0.00420  -0.01463  -0.04274  -0.06629   0.02900
 184        9D-2       -0.00440  -0.01657  -0.02165  -0.04510   0.01977
 185 9   H  1S         -0.00145  -0.00038  -0.00140  -0.00643  -0.00344
 186        2S          0.00483   0.00143   0.00420   0.01801   0.01216
 187        3S         -0.00921   0.00099  -0.01283  -0.01423  -0.00033
 188        4PX        -0.00072  -0.00011   0.00048  -0.00025  -0.00013
 189        4PY        -0.00109  -0.00026   0.00004  -0.00065  -0.00045
 190        4PZ         0.00000  -0.00000   0.00000   0.00000  -0.00000
 191        5PX         0.00388   0.00050   0.00148   0.00987  -0.00214
 192        5PY         0.00036   0.00045  -0.00329  -0.00225   0.00650
 193        5PZ        -0.00000  -0.00000   0.00002   0.00002  -0.00000
 194 10  H  1S          0.00170  -0.00208  -0.00412  -0.02191  -0.06053
 195        2S          0.01163  -0.00281   0.00388  -0.01187  -0.09500
 196        3S          0.01010   0.00076  -0.00137   0.00571  -0.00060
 197        4PX         0.00044  -0.00018  -0.00068  -0.00221  -0.00296
 198        4PY         0.00029   0.00004  -0.00020  -0.00014   0.00029
 199        4PZ        -0.00000   0.00000  -0.00000   0.00000   0.00001
 200        5PX         0.00273  -0.00055   0.00002  -0.00414  -0.01991
 201        5PY        -0.00267   0.00041   0.00032  -0.00226  -0.00199
 202        5PZ        -0.00000   0.00000  -0.00000  -0.00000   0.00003
 203 11  H  1S         -0.00045   0.00142   0.01123  -0.02174   0.00937
 204        2S         -0.00150   0.00355   0.04270   0.02183   0.02321
 205        3S         -0.00313   0.00068  -0.01220  -0.01779  -0.00146
 206        4PX        -0.00021  -0.00005   0.00038  -0.00009  -0.00063
 207        4PY         0.00012   0.00010  -0.00049   0.00122  -0.00049
 208        4PZ         0.00000   0.00000   0.00000   0.00000   0.00000
 209        5PX        -0.00080   0.00064   0.00884   0.00415   0.00396
 210        5PY         0.00140   0.00005  -0.00338  -0.00282  -0.00494
 211        5PZ         0.00000  -0.00000   0.00001   0.00001  -0.00001
 212 12  H  1S         -0.00075   0.00214  -0.01880  -0.03870  -0.00120
 213        2S          0.00325   0.00785   0.00668  -0.02233  -0.01614
 214        3S          0.00189   0.00242  -0.00110   0.00390   0.00523
 215        4PX         0.00010  -0.00026   0.00043   0.00053   0.00103
 216        4PY         0.00013   0.00007   0.00136   0.00244   0.00034
 217        4PZ         0.00000   0.00000  -0.00000  -0.00000  -0.00000
 218        5PX         0.00016   0.00222   0.00499   0.01432  -0.00443
 219        5PY        -0.00086  -0.00328  -0.00557   0.00029   0.00442
 220        5PZ         0.00000  -0.00000   0.00001   0.00001  -0.00001
                          11        12        13        14        15
     Eigenvalues --     2.00000   2.00000   2.00000   2.00000   2.00000
   1 1   C  1S          0.06411  -0.00690  -0.01330  -0.05221   0.03536
   2        2S         -0.13474   0.01620   0.01193   0.12992  -0.07728
   3        3S         -0.24425   0.26383  -0.03329   0.07704   0.07328
   4        4S         -0.26073  -0.01109   0.38504  -0.09024  -0.50864
   5        5PX        -0.24760   0.06713   0.00176   0.01259   0.00050
   6        5PY        -0.01137  -0.00790   0.06071   0.05580  -0.09271
   7        5PZ        -0.00008  -0.00001  -0.00006   0.00010  -0.00004
   8        6PX        -0.04040  -0.10784   0.00706  -0.00752  -0.09588
   9        6PY         0.00994   0.16919  -0.25862   0.02739   0.23218
  10        6PZ        -0.00009   0.00001   0.00009   0.00000  -0.00003
  11        7PX         0.05930   0.03404  -0.04348   0.07326   0.01933
  12        7PY        -0.02727  -0.15815   0.22058  -0.08284  -0.09772
  13        7PZ        -0.00000   0.00003  -0.00005  -0.00000  -0.00005
  14        8D 0        0.01439   0.00186  -0.00334  -0.00823   0.00575
  15        8D+1       -0.00003   0.00001   0.00000   0.00001  -0.00000
  16        8D-1       -0.00000   0.00000  -0.00001   0.00001   0.00001
  17        8D+2       -0.02864   0.00110  -0.01706   0.01512   0.00798
  18        8D-2       -0.01288   0.01100   0.00045  -0.00838  -0.00071
  19        9D 0        0.00320   0.01231  -0.00935  -0.00580   0.01804
  20        9D+1        0.00000   0.00001  -0.00004  -0.00001   0.00000
  21        9D-1        0.00001   0.00005   0.00002  -0.00004   0.00001
  22        9D+2        0.05731  -0.10491  -0.02453   0.00590  -0.03909
  23        9D-2        0.01462  -0.04293   0.02460  -0.02355  -0.06592
  24 2   N  1S          0.09337  -0.00989   0.01765  -0.04899   0.00632
  25        2S         -0.21402   0.01909  -0.04406   0.10790  -0.00919
  26        3S         -0.47035   0.08511  -0.04793   0.16728  -0.00072
  27        4S         -0.15780   0.03448  -0.15924   0.07567   0.08798
  28        5PX         0.34510  -0.06238   0.00361  -0.09759   0.04326
  29        5PY        -0.15455   0.06294   0.00618   0.11784  -0.03035
  30        5PZ         0.00039   0.00000   0.00004  -0.00001  -0.00000
  31        6PX        -0.06527  -0.06139   0.00249   0.00373  -0.05851
  32        6PY        -0.07477   0.03458  -0.00238   0.07632  -0.00139
  33        6PZ        -0.00005  -0.00006   0.00003   0.00008  -0.00009
  34        7PX        -0.18509   0.00958  -0.01411  -0.01300   0.00246
  35        7PY         0.00853  -0.00333  -0.02822   0.02152   0.02448
  36        7PZ        -0.00012  -0.00007   0.00003   0.00000  -0.00005
  37        8D 0        0.00203  -0.00163  -0.00114  -0.00228   0.00110
  38        8D+1        0.00001   0.00000   0.00000   0.00000  -0.00000
  39        8D-1       -0.00001   0.00000  -0.00000   0.00001   0.00000
  40        8D+2       -0.00322   0.00250  -0.00025   0.00564  -0.00147
  41        8D-2       -0.00870   0.00229  -0.00214   0.00531   0.00129
  42        9D 0        0.00830   0.01135   0.00392  -0.00471   0.01340
  43        9D+1       -0.00012   0.00003   0.00000   0.00004   0.00001
  44        9D-1        0.00001  -0.00000  -0.00002   0.00000   0.00001
  45        9D+2       -0.02069  -0.01239  -0.00151   0.01198  -0.01957
  46        9D-2        0.01026   0.00149  -0.02237  -0.00241   0.01740
  47 3   N  1S         -0.06478   0.00024  -0.00241  -0.00571   0.00413
  48        2S          0.15289  -0.00073   0.00647   0.01194  -0.00873
  49        3S          0.35613   0.05942   0.03147  -0.05003   0.05878
  50        4S          0.30605  -0.01305   0.08944  -0.04400  -0.01915
  51        5PX        -0.07732   0.04108   0.02547   0.02915  -0.03454
  52        5PY        -0.11365   0.03524  -0.01532   0.10300  -0.00605
  53        5PZ        -0.00008   0.00009   0.00007   0.00009  -0.00004
  54        6PX        -0.14774  -0.00470   0.00166   0.04929  -0.04843
  55        6PY        -0.05318   0.01476   0.01234   0.04179  -0.01473
  56        6PZ        -0.00013  -0.00003   0.00000   0.00006  -0.00009
  57        7PX        -0.03983   0.00013  -0.01765   0.01219   0.00376
  58        7PY         0.00070   0.00201   0.00430  -0.00502  -0.00443
  59        7PZ        -0.00009   0.00004  -0.00005   0.00002   0.00003
  60        8D 0       -0.00217   0.00154   0.00108   0.00024  -0.00090
  61        8D+1        0.00001  -0.00001  -0.00001  -0.00001   0.00001
  62        8D-1        0.00001  -0.00000   0.00000  -0.00001   0.00000
  63        8D+2        0.00458  -0.00314  -0.00234  -0.00093   0.00190
[...]
   D13        0.00000   0.00000   0.00000  -0.00000  -0.00000   0.00000
   D14        3.14159   0.00000   0.00000   0.00000   0.00000   3.14159
   D15       -3.14159  -0.00000   0.00000  -0.00001  -0.00001  -3.14159
   D16        0.00000  -0.00000   0.00000  -0.00000  -0.00000   0.00000
   D17       -0.00001   0.00000   0.00000   0.00001   0.00001   0.00000
   D18       -3.14159  -0.00000   0.00000  -0.00001  -0.00001  -3.14159
   D19        3.14159   0.00000   0.00000   0.00000   0.00000   3.14159
   D20        0.00001  -0.00000   0.00000  -0.00001  -0.00001   0.00000
         Item               Value     Threshold  Converged?
 Maximum Force            0.000079     0.000450     YES
 RMS     Force            0.000027     0.000300     YES
 Maximum Displacement     0.001208     0.001800     YES
 RMS     Displacement     0.000265     0.001200     YES
 Predicted change in Energy=-1.039392D-07
 Optimization completed.
    -- Stationary point found.
                           ----------------------------
                           !   Optimized Parameters   !
                           ! (Angstroms and Degrees)  !
 --------------------------                            --------------------------
 ! Name  Definition              Value          Derivative Info.                !
 --------------------------------------------------------------------------------
 ! R1    R(1,2)                  1.381          -DE/DX =    0.0001              !
 ! R2    R(1,4)                  1.3937         -DE/DX =    0.0                 !
 ! R3    R(1,8)                  1.4179         -DE/DX =    0.0                 !
 ! R4    R(2,3)                  1.1133         -DE/DX =    0.0                 !
 ! R5    R(4,5)                  1.3683         -DE/DX =    0.0                 !
 ! R6    R(5,6)                  1.4127         -DE/DX =   -0.0001              !
 ! R7    R(5,9)                  1.0903         -DE/DX =    0.0                 !
 ! R8    R(6,7)                  1.4069         -DE/DX =    0.0                 !
 ! R9    R(6,10)                 1.0911         -DE/DX =    0.0                 !
 ! R10   R(7,8)                  1.3883         -DE/DX =    0.0                 !
 ! R11   R(7,11)                 1.0892         -DE/DX =    0.0                 !
 ! R12   R(8,12)                 1.0898         -DE/DX =    0.0                 !
 ! A1    A(2,1,4)              119.3624         -DE/DX =    0.0                 !
 ! A2    A(2,1,8)              119.6557         -DE/DX =    0.0                 !
 ! A3    A(4,1,8)              120.9819         -DE/DX =    0.0                 !
 ! A4    A(1,4,5)              122.943          -DE/DX =    0.0                 !
 ! A5    A(4,5,6)              116.3499         -DE/DX =    0.0                 !
 ! A6    A(4,5,9)              122.2928         -DE/DX =    0.0                 !
 ! A7    A(6,5,9)              121.3573         -DE/DX =    0.0                 !
 ! A8    A(5,6,7)              121.8292         -DE/DX =    0.0                 !
 ! A9    A(5,6,10)             118.7074         -DE/DX =    0.0                 !
 ! A10   A(7,6,10)             119.4634         -DE/DX =    0.0                 !
 ! A11   A(6,7,8)              121.0713         -DE/DX =    0.0                 !
 ! A12   A(6,7,11)             119.7194         -DE/DX =    0.0                 !
 ! A13   A(8,7,11)             119.2093         -DE/DX =    0.0                 !
 ! A14   A(1,8,7)              116.8245         -DE/DX =    0.0001              !
 ! A15   A(1,8,12)             120.8353         -DE/DX =   -0.0001              !
 ! A16   A(7,8,12)             122.3402         -DE/DX =    0.0                 !
 ! A17   L(1,2,3,12,-1)        179.7477         -DE/DX =   -0.0001              !
 ! A18   L(1,2,3,12,-2)        180.0003         -DE/DX =    0.0                 !
 ! D1    D(2,1,4,5)            180.0002         -DE/DX =    0.0                 !
 ! D2    D(8,1,4,5)             -0.0002         -DE/DX =    0.0                 !
 ! D3    D(2,1,8,7)            180.0            -DE/DX =    0.0                 !
 ! D4    D(2,1,8,12)            -0.0007         -DE/DX =    0.0                 !
 ! D5    D(4,1,8,7)              0.0004         -DE/DX =    0.0                 !
 ! D6    D(4,1,8,12)           179.9997         -DE/DX =    0.0                 !
 ! D7    D(1,4,5,6)             -0.0001         -DE/DX =    0.0                 !
 ! D8    D(1,4,5,9)           -179.9995         -DE/DX =    0.0                 !
 ! D9    D(4,5,6,7)              0.0001         -DE/DX =    0.0                 !
 ! D10   D(4,5,6,10)           179.9999         -DE/DX =    0.0                 !
 ! D11   D(9,5,6,7)            179.9996         -DE/DX =    0.0                 !
 ! D12   D(9,5,6,10)            -0.0007         -DE/DX =    0.0                 !
 ! D13   D(5,6,7,8)              0.0001         -DE/DX =    0.0                 !
 ! D14   D(5,6,7,11)           180.0            -DE/DX =    0.0                 !
 ! D15   D(10,6,7,8)          -179.9997         -DE/DX =    0.0                 !
 ! D16   D(10,6,7,11)            0.0002         -DE/DX =    0.0                 !
 ! D17   D(6,7,8,1)             -0.0003         -DE/DX =    0.0                 !
 ! D18   D(6,7,8,12)          -179.9996         -DE/DX =    0.0                 !
 ! D19   D(11,7,8,1)           179.9998         -DE/DX =    0.0                 !
 ! D20   D(11,7,8,12)            0.0005         -DE/DX =    0.0                 !
 --------------------------------------------------------------------------------
 GradGradGradGradGradGradGradGradGradGradGradGradGradGradGradGradGradGrad

 Leave Link  103 at Sat Nov  5 19:35:34 2016, MaxMem=   524288000 cpu:               0.0 elap:               0.0
 (Enter /home/ubuntu/g16/l9999.exe)

 ----------------------------------------------------------------------

 Electric dipole moment (input orientation):
 (Debye = 10**-18 statcoulomb cm , SI units = C m)
                  (au)            (Debye)         (10**-30 SI)
   Tot        0.275962D+00      0.701424D+00      0.233970D+01
   x         -0.407085D-01     -0.103471D+00     -0.345141D+00
   y         -0.272938D+00     -0.693740D+00     -0.231407D+01
   z         -0.153390D-02     -0.389879D-02     -0.130050D-01

 Dipole polarizability, Alpha (input orientation).
 (esu units = cm**3 , SI units = C**2 m**2 J**-1)
 Alpha(0;0):
               (au)            (10**-24 esu)      (10**-40 SI)
   iso        0.805949D+02      0.119429D+02      0.132883D+02
   aniso      0.717399D+02      0.106308D+02      0.118283D+02
   xx         0.123427D+03      0.182900D+02      0.203503D+02
   yx         0.591968D+01      0.877206D+00      0.976023D+00
   yy         0.764109D+02      0.113229D+02      0.125985D+02
   zx         0.275131D+01      0.407702D+00      0.453629D+00
   zy         0.220406D+00      0.326608D-01      0.363401D-01
   zz         0.419468D+02      0.621588D+01      0.691610D+01

 ----------------------------------------------------------------------

 Dipole orientation:
     6         -2.23799480          0.22458707          1.12170713
     7         -4.76280866          0.51582056          1.71384782
     7         -6.79623602          0.75036555          2.20025725
     6         -1.50595091          0.14016986         -1.40689541
     6          0.95443732         -0.14363809         -2.14973730
     6          2.76468963         -0.35247586         -0.19871848
     6          2.07552005         -0.27300732          2.36789379
     6         -0.43043319          0.01604870          3.08866254
     1          1.50475922         -0.20708299         -4.13420638
     1          4.74913559         -0.58138737         -0.70932072
     1          3.52528316         -0.44025768          3.81937661
     1         -1.00786256          0.08264658          5.06436251

 Electric dipole moment (dipole orientation):
 (Debye = 10**-18 statcoulomb cm , SI units = C m)
                  (au)            (Debye)         (10**-30 SI)
   Tot        0.275962D+00      0.701424D+00      0.233970D+01
   x          0.000000D+00      0.000000D+00      0.000000D+00
   y          0.000000D+00      0.000000D+00      0.000000D+00
   z          0.275962D+00      0.701424D+00      0.233970D+01

 Dipole polarizability, Alpha (dipole orientation).
 (esu units = cm**3 , SI units = C**2 m**2 J**-1)
 Alpha(0;0):
               (au)            (10**-24 esu)      (10**-40 SI)
   iso        0.805949D+02      0.119429D+02      0.132883D+02
   aniso      0.717399D+02      0.106308D+02      0.118283D+02
   xx         0.119727D+03      0.177417D+02      0.197403D+02
   yx        -0.898269D+01     -0.133110D+01     -0.148105D+01
   yy         0.428902D+02      0.635567D+01      0.707164D+01
   zx        -0.124609D+02     -0.184652D+01     -0.205453D+01
   zy         0.143695D+01      0.212935D+00      0.236922D+00
   zz         0.791672D+02      0.117314D+02      0.130529D+02

 ----------------------------------------------------------------------
 1\1\GINC-LC06-2-2\Freq\UB3LYP\Aug-CC-pVDZ\C6H4N2(1+,2)\UBUNTU\05-Nov-2
 016\0\\#P Geom=AllCheck Guess=TCheck SCRF=Check GenChk UB3LYP/Aug-CC-p
 VDZ Freq\\C6H4N2+_UB3LYP-aug-cc-pVDZ\\1,2\C,-1.2633794631,-0.411385277
 7,-0.0604566211\N,-2.6390512385,-0.5227625124,-0.1068637821\N,-3.74772
 78231,-0.6174420884,-0.1442711143\C,-0.680534466,0.8544701937,-0.04005
 67508\C,0.6729782427,1.0497873841,0.0056508792\C,1.473874439,-0.113684
 4379,0.031922042\C,0.9106381779,-1.4028048524,0.0121671762\C,-0.465143
 2503,-1.582986502,-0.0342856776\H,1.1176601812,2.0451441732,0.02124121
 65\H,2.5586495242,-0.0024913559,0.0685254132\H,1.5607118836,-2.2764828
 129,0.0335332837\H,-0.9234162075,-2.5716219114,-0.0503160648\\Version=
 ES64L-G16RevA.03\State=2-A\HF=-340.1853214\S2=0.759461\S2-1=0.\S2A=0.7
 50043\RMSD=5.547e-09\RMSF=5.167e-05\ZeroPoint=0.0854547\Thermal=0.0916
 356\Dipole=-0.0407085,-0.2729382,-0.0015339\DipoleDeriv=-1.0235366,-0.
 0550256,-0.0378728,-0.1159413,0.1865044,-0.0038522,-0.0379055,-0.00180
 03,0.0985658,1.9033787,0.1258554,0.0548715,0.1652206,0.161863,0.005495
 5,0.0548957,0.0041693,0.2784542,-0.6958001,-0.066867,-0.0266789,-0.084
 3591,0.0849741,-0.0028476,-0.0266927,-0.0022586,0.0941819,0.4379888,-0
 .0675328,0.0134758,0.4668513,-0.0241631,0.015688,0.0138014,-0.0023115,
 0.0371372,-0.4527353,0.2586874,-0.0141347,0.2559513,-0.0317648,0.00861
 89,-0.0141353,0.0087142,-0.0288975,0.3040524,0.0033889,0.0102414,0.003
 3912,0.3235856,0.0003115,0.0102383,0.0003101,0.0004227,-0.3514779,-0.3
 199195,-0.0099394,-0.3414181,-0.1205643,-0.0115362,-0.0099519,-0.01081
 12,-0.0625188,0.4982724,0.1212784,0.0171085,-0.3705284,0.0007337,-0.01
 24756,0.0168072,0.0040868,-0.0068989,0.123276,0.0041647,-0.0013986,0.0
 204062,0.1325205,0.0006679,-0.0013892,0.0001191,0.1648255,0.0936853,-0
 .0065283,-0.0012132,0.0150904,0.0885689,0.0004833,-0.0011991,-0.000244
 7,0.1295393,0.0935999,0.0007317,-0.00185,-0.0060618,0.0807043,-0.00024
 55,-0.0018538,-0.0000167,0.1484719,0.0692965,0.0017668,-0.0026096,-0.0
 086022,0.1170376,-0.0003081,-0.002615,0.0000435,0.1467168\Polar=123.42
 68382,5.9196784,76.410904,2.7513064,0.2204061,41.9468329\Quadrupole=8.
 897093,0.0205683,-8.9176613,1.8841877,0.6018947,0.0689126\PG=C01 [X(C6
 H4N2)]\NImag=0\\0.52172517,0.01728480,0.62961184,0.01411325,0.00090238
 ,0.10351181,-0.15383930,0.00380048,-0.00375464,1.62681488,-0.00445453,
 -0.09304854,-0.00018098,0.12871936,0.13549226,-0.00375995,0.00009716,-
 0.04243082,0.05185994,0.00436414,0.09146522,-0.08106763,-0.01010593,-0
 .00316391,-1.35493399,-0.11283925,-0.04430288,1.41436641,-0.01001978,0
 .02190676,-0.00033189,-0.11187293,-0.04608549,-0.00377135,0.11895614,0
 .02756517,-0.00316369,-0.00033481,0.01256339,-0.04430253,-0.00380393,-
 0.04338805,0.04695333,0.00401035,0.02434426,-0.10019865,-0.08558344,-0
 .00205009,-0.06602803,-0.03964240,-0.00180436,0.01572140,0.00434510,0.
 00033467,0.57856104,-0.07394463,-0.28782540,-0.00264057,-0.04629159,0.
 00211029,-0.00155002,0.01770651,-0.00101259,0.00059228,0.14764884,0.42
 723950,-0.00204304,-0.00303252,-0.04094213,-0.00180841,-0.00132606,-0.
 01323849,0.00034275,0.00014220,0.00587713,0.01736836,0.00519304,0.0661
 6029,-0.02390454,-0.05279235,-0.00095178,0.01442868,-0.00568861,0.0001
 9431,-0.00779159,0.00019487,-0.00018539,-0.36939934,-0.03902553,-0.010
 87941,0.65427760,-0.03267806,0.01329289,-0.00109454,-0.01238071,-0.006
 85888,-0.00042637,0.00445949,0.00130368,0.00015239,-0.06106362,-0.0969
 1760,-0.00208718,0.07815780,0.67873570,-0.00093957,-0.00177213,0.00336
 604,0.00019022,-0.00020100,0.00856405,-0.00018277,0.00000875,-0.002291
 09,-0.01089280,-0.00134492,-0.04746857,0.01803562,0.00297382,0.1208638
 0,0.00175503,0.00148133,0.00015312,-0.00283455,0.00066751,-0.00006866,
 0.00299323,0.00018430,0.00009070,-0.05044425,0.01769500,-0.00203380,-0
 .16814720,0.12624334,-0.00345699,0.71648170,0.00949955,-0.04975650,0.0
 0029129,-0.00227223,-0.00749794,-0.00008063,0.00125722,0.00162539,0.00
 004316,0.06483846,0.04008634,0.00220199,0.04867062,-0.24677032,0.00152
 786,0.01587214,0.62832358,0.00015801,0.00002137,-0.00276020,-0.0000704
 3,0.00001841,-0.00078677,0.00009132,0.00000701,0.00030743,-0.00200512,
 0.00061413,0.01018967,-0.00350412,0.00414082,-0.06335844,0.01934991,0.
 00082983,0.14293393,-0.05024154,0.05504039,-0.00188049,0.01531962,0.00
 859777,0.00024432,-0.00786689,-0.00190863,-0.00020105,-0.03645104,-0.0
 2982950,-0.00104894,0.05521351,-0.00322636,0.00162661,-0.15607736,-0.0
 4065032,-0.00306676,0.70380361,0.00914186,0.02719428,0.00032051,0.0211
 5332,-0.00385426,0.00070517,-0.00705016,0.00074711,-0.00023585,-0.0210
 6673,-0.02126440,-0.00071888,0.02936197,-0.04666104,0.00095640,-0.1009
 1054,-0.28971953,-0.00353501,-0.04876714,0.69880903,-0.00190835,0.0018
 6648,0.00651843,0.00025198,0.00028221,0.00822982,-0.00020415,-0.000062
 64,-0.00193997,-0.00104380,-0.00101415,-0.00588070,0.00164652,-0.00014
 118,0.00692096,-0.00310349,-0.00150526,-0.06586850,0.01911911,-0.00130
 035,0.13596536,-0.11461991,0.05289390,-0.00202003,-0.07904379,0.024442
 57,-0.00244370,0.01889030,0.00004455,0.00049039,0.04396013,0.02677382,
 0.00097063,-0.04555604,0.01952415,-0.00140354,-0.01814836,-0.07433348,
 -0.00084686,-0.35161979,0.00018362,-0.00968532,0.66840144,0.09614338,-
 0.24728447,0.00312031,0.02219243,0.01753462,0.00076189,-0.01374612,-0.
 00535516,-0.00046896,-0.01399106,-0.05852376,-0.00051642,0.02449000,-0
 .00386240,0.00082475,-0.03796769,0.01634645,-0.00127243,-0.05731565,-0
 .12427496,-0.00196719,0.06865978,0.69876301,-0.00199369,0.00166371,-0.
 05374868,-0.00244519,0.00083781,-0.00613342,0.00048196,-0.00000446,0.0
 0434977,0.00094579,0.00085670,0.01565530,-0.00140046,0.00065733,-0.003
 58045,-0.00082462,-0.00249712,0.00562315,-0.00972025,-0.00003035,-0.06
 441799,0.01824383,0.00265823,0.12860456,-0.00463811,-0.00138649,-0.000
 28712,-0.00061863,-0.00146840,-0.00006629,-0.00007423,0.00027881,0.000
 01199,-0.01153874,-0.02528397,-0.00041533,-0.09845065,-0.11106998,-0.0
 0217417,0.01048122,0.01855832,0.00012693,-0.00146729,0.00340039,-0.000
 25664,-0.00088454,0.00085661,0.00000131,0.10594983,0.00108321,0.001043
 36,0.00003475,0.00013012,0.00084304,0.00000408,0.00029705,-0.00020659,
 0.00001014,-0.00267638,0.00133021,-0.00008952,-0.10572031,-0.29298555,
 -0.00371888,-0.01171357,-0.01682120,-0.00040916,0.00336181,-0.00147709
 ,0.00010853,0.00060398,-0.00010853,0.00002084,0.11554849,0.30775533,-0
 .00028560,-0.00004844,0.00385127,-0.00006529,-0.00004973,0.00132083,0.
 00001201,0.00000952,-0.00042491,-0.00040150,-0.00085096,0.00031860,-0.
 00217093,-0.00389939,-0.03600461,0.00010844,0.00061073,0.00705348,-0.0
 0025664,0.00010987,0.00620339,0.00000115,0.00002932,-0.00090757,0.0028
 7074,0.00406698,0.02292976,0.00159528,0.00019415,0.00005699,-0.0009211
 4,-0.00005479,0.00003091,0.00043920,0.00003861,-0.00000543,-0.00163098
 ,0.00247412,-0.00024448,-0.01069164,-0.00400702,-0.00063176,-0.3418142
 0,-0.02988661,-0.01007007,-0.00527136,0.00180952,-0.00040663,0.0004597
 0,-0.00137584,-0.00020317,0.00076647,-0.00030718,0.00015977,0.35656370
 ,-0.00091547,-0.00103274,-0.00003140,0.00010129,0.00002781,0.00000455,
 -0.00004554,-0.00006798,-0.00000194,0.00519678,-0.00265969,0.00016998,
 0.02540935,0.00276787,0.00085267,-0.02907784,-0.05942229,-0.00098909,-
 0.02738842,0.00121746,-0.00092593,-0.00230950,-0.00450107,-0.00008444,
 -0.00020319,0.00132426,-0.00000361,0.03075297,0.06119834,0.00005634,0.
 00000597,-0.00009170,0.00003100,-0.00000071,-0.00183887,-0.00000548,0.
 00000089,0.00060102,-0.00024285,0.00007828,0.00566429,-0.00061404,-0.0
 0013810,0.00797256,-0.01006937,-0.00101636,-0.04370937,-0.00042445,0.0
 0005751,0.00681982,-0.00020376,-0.00005302,0.00646071,0.00015986,-0.00
 000709,-0.00397747,0.01116239,0.00105733,0.02608028,-0.00364465,-0.001
 45222,-0.00031838,-0.00174027,0.00149336,-0.00011343,0.00014950,-0.000
 30817,0.00002503,-0.00060696,-0.00104795,0.00000731,0.00028039,-0.0035
 0108,-0.00019538,0.01106687,-0.01224132,0.00022183,-0.16002823,0.13991
 747,-0.00399939,-0.01480029,0.02385216,-0.00062064,0.00042655,-0.00054
 847,0.00002677,0.00068116,-0.00008786,0.00013863,0.16724508,-0.0020722
 8,0.00163464,-0.00007231,-0.00034095,0.00116609,-0.00001178,-0.0002677
 2,-0.00041085,-0.00000891,-0.00140404,-0.00036291,-0.00004700,-0.00248
 892,-0.00320798,-0.00008945,0.01701931,-0.01694423,0.00056039,0.140242
 72,-0.24428452,0.00459904,-0.00541724,0.00716794,-0.00018060,0.0007745
 4,-0.00066522,0.00002592,0.00016785,0.00098603,0.00000834,-0.14625758,
 0.25425952,-0.00031875,-0.00005145,0.00576971,-0.00011454,0.00005000,0
 .00165032,0.00002505,-0.00001026,-0.00059821,0.00000711,-0.00003501,-0
 .00084245,-0.00019475,-0.00012352,0.00601067,0.00023958,-0.00042523,0.
 00426883,-0.00399907,0.00458807,-0.03890478,-0.00063853,0.00080537,0.0
 0403594,0.00002758,-0.00001864,-0.00037737,0.00013877,-0.00000028,-0.0
 0343135,0.00465667,-0.00478804,0.02651514,0.00707884,0.02062537,0.0001
 0306,0.00339652,0.00022741,0.00022979,-0.00082572,0.00006714,-0.000048
 01,-0.00194457,0.00312488,-0.00021563,-0.00025917,-0.00045793,0.000024
 53,-0.00531211,0.00068764,-0.00038465,-0.00531325,-0.02717359,-0.00040
 986,-0.10703886,-0.11179800,-0.00246488,0.00004812,-0.00005878,0.00000
 110,-0.00017618,-0.00143257,0.00001173,0.00097083,0.00004430,0.0001708
 9,0.10937555,-0.00906804,-0.01573614,-0.00031755,-0.00293859,0.0001710
 1,-0.00009683,0.00137831,-0.00000946,0.00004607,0.00339848,-0.00219997
 ,0.00011039,-0.00056889,0.00116362,-0.00001786,0.00050670,0.00055025,0
 .00001372,0.00184333,0.00356792,0.00006043,-0.11106615,-0.29590166,-0.
 00389763,-0.00000512,-0.00003200,-0.00000020,0.00019421,0.00016199,0.0
 0000697,0.00018164,0.00066147,0.00000898,0.11614413,0.30760297,0.00008
 503,0.00068228,0.00439288,0.00022789,0.00000983,-0.00341382,-0.0000472
 3,0.00000190,0.00059922,-0.00021540,0.00010122,0.00450705,0.00002441,-
 0.00001408,-0.00099492,-0.00038482,0.00001974,0.00610679,-0.00039239,-
 0.00091709,0.00635415,-0.00246426,-0.00392185,-0.03594133,0.00000112,-
 0.00000201,0.00001459,0.00001272,-0.00004783,-0.00054991,0.00017098,0.
 00000439,-0.00409645,0.00298194,0.00408351,0.02302174\\-0.00003286,0.0
 0010359,-0.00000050,0.00011918,-0.00005254,0.00000426,-0.00004117,0.00
 002342,-0.00000158,0.00004870,-0.00005413,0.00000151,-0.00008050,0.000
 13684,-0.00000337,0.00002565,-0.00008496,0.00000130,0.00000877,0.00007
 527,0.00000072,-0.00009658,-0.00008699,-0.00000444,0.00001179,-0.00002
 904,0.00000077,-0.00000428,0.00000126,-0.00000039,-0.00000756,-0.00001
 958,-0.00000027,0.00004887,-0.00001315,0.00000200\\\@


 ABSOLUTISM, OBSOLETISM -- IF IT WORKS, IT'S OUT OF DATE

                          -- STAFFORD BEER
 Job cpu time:       0 days  1 hours  4 minutes 42.6 seconds.
 Elapsed time:       0 days  0 hours  9 minutes 14.7 seconds.
 File lengths (MBytes):  RWF=    121 Int=      0 D2E=      0 Chk=      7 Scr=      1
 Normal termination of Gaussian 16 at Sat Nov  5 19:35:34 2016.
