 Entering Gaussian System, Link 0=/home/ubuntu/g16/g16
 Input=CF3COO-_UB3LYP-aug-cc-pVDZ-Opt.gjf
 Output=CF3COO-_UB3LYP-aug-cc-pVDZ-Opt.log
 Initial command:
 /home/ubuntu/g16/l1.exe "/home/ubuntu/g16/Gau-27456.inp" -scrdir="/home/ubuntu/g16/"
 Entering Link 1 = /home/ubuntu/g16/l1.exe PID=     27458.
  
 Copyright (c) 1988,1990,1992,1993,1995,1998,2003,2009,2016,
            Gaussian, Inc.  All Rights Reserved.
  
 This is part of the Gaussian(R) 16 program.  It is based on
 the Gaussian(R) 09 system (copyright 2009, Gaussian, Inc.),
 the Gaussian(R) 03 system (copyright 2003, Gaussian, Inc.),
 the Gaussian(R) 98 system (copyright 1998, Gaussian, Inc.),
 the Gaussian(R) 94 system (copyright 1995, Gaussian, Inc.),
 the Gaussian 92(TM) system (copyright 1992, Gaussian, Inc.),
 the Gaussian 90(TM) system (copyright 1990, Gaussian, Inc.),
 the Gaussian 88(TM) system (copyright 1988, Gaussian, Inc.),
 the Gaussian 86(TM) system (copyright 1986, Carnegie Mellon
 University), and the Gaussian 82(TM) system (copyright 1983,
 Carnegie Mellon University). Gaussian is a federally registered
 trademark of Gaussian, Inc.
  
 This software contains proprietary and confidential information,
 including trade secrets, belonging to Gaussian, Inc.
  
 This software is provided under written license and may be
 used, copied, transmitted, or stored only in accord with that
 written license.
  
 The following legend is applicable only to US Government
 contracts under FAR:
  
                    RESTRICTED RIGHTS LEGEND
  
 Use, reproduction and disclosure by the US Government is
 subject to restrictions as set forth in subparagraphs (a)
 and (c) of the Commercial Computer Software - Restricted
 Rights clause in FAR 52.227-19.
  
 Gaussian, Inc.
 340 Quinnipiac St., Bldg. 40, Wallingford CT 06492
  
  
 ---------------------------------------------------------------
 Warning -- This program may not be used in any manner that
 competes with the business of Gaussian, Inc. or will provide
 assistance to any competitor of Gaussian, Inc.  The licensee
 of this program is prohibited from giving any competitor of
 Gaussian, Inc. access to this program.  By using this program,
 the user acknowledges that Gaussian, Inc. is engaged in the
 business of creating and licensing software in the field of
 computational chemistry and represents and warrants to the
 licensee that it is not a competitor of Gaussian, Inc. and that
 it will not use this program in any manner prohibited above.
 ---------------------------------------------------------------
  

 Cite this work as:
 Gaussian 16, Revision A.03,
 M. J. Frisch, G. W. Trucks, H. B. Schlegel, G. E. Scuseria, 
 M. A. Robb, J. R. Cheeseman, G. Scalmani, V. Barone, 
 G. A. Petersson, H. Nakatsuji, X. Li, M. Caricato, A. V. Marenich, 
 J. Bloino, B. G. Janesko, R. Gomperts, B. Mennucci, H. P. Hratchian, 
 J. V. Ortiz, A. F. Izmaylov, J. L. Sonnenberg, D. Williams-Young, 
 F. Ding, F. Lipparini, F. Egidi, J. Goings, B. Peng, A. Petrone, 
 T. Henderson, D. Ranasinghe, V. G. Zakrzewski, J. Gao, N. Rega, 
 G. Zheng, W. Liang, M. Hada, M. Ehara, K. Toyota, R. Fukuda, 
 J. Hasegawa, M. Ishida, T. Nakajima, Y. Honda, O. Kitao, H. Nakai, 
 T. Vreven, K. Throssell, J. A. Montgomery, Jr., J. E. Peralta, 
 F. Ogliaro, M. J. Bearpark, J. J. Heyd, E. N. Brothers, K. N. Kudin, 
 V. N. Staroverov, T. A. Keith, R. Kobayashi, J. Normand, 
 K. Raghavachari, A. P. Rendell, J. C. Burant, S. S. Iyengar, 
 J. Tomasi, M. Cossi, J. M. Millam, M. Klene, C. Adamo, R. Cammi, 
 J. W. Ochterski, R. L. Martin, K. Morokuma, O. Farkas, 
 J. B. Foresman, and D. J. Fox, Gaussian, Inc., Wallingford CT, 2016.
 
 ******************************************
 Gaussian 16:  ES64L-G16RevA.03 25-Dec-2016
                 1-Aug-2020 
 ******************************************
 %chk=CF3COO-_UB3LYP-aug-cc-pVDZ-Opt.chk
 %mem=500MW
 %nproc=7
 Will use up to    7 processors via shared memory.
 ----------------------------------------------------------------------
 #p opt=(maxcycles=777) freq ub3lyp/aug-cc-pVDZ pop=(Bonding,AllOrbital
 s,mk,no,nboread)
 ----------------------------------------------------------------------
 1/6=777,18=20,19=15,26=3,38=1/1,3;
 2/9=110,12=2,17=6,18=5,40=1/2;
 3/5=16,7=10,11=2,25=1,30=1,71=1,74=-5,116=2/1,2,3;
 4//1;
 5/5=2,38=5/2;
 6/7=2,8=2,9=2,10=2,15=8,20=1,22=-1,27=20,28=1,31=1,40=2,96=-1/1,2,7;
 7//1,2,3,16;
 1/6=777,18=20,19=15,26=3/3(2);
 2/9=110/2;
 99//99;
 2/9=110/2;
 3/5=16,7=10,11=2,25=1,30=1,71=1,74=-5,116=2/1,2,3;
 4/5=5,16=3,69=1/1;
 5/5=2,38=5/2;
 7//1,2,3,16;
 1/6=777,18=20,19=15,26=3/3(-5);
 2/9=110/2;
 6/7=2,8=2,9=2,10=2,15=8,19=2,20=1,22=-1,27=20,28=1,31=1,40=2,96=-1/1,2,7;
 99/9=1/99;
 Leave Link    1 at Sat Aug  1 13:29:01 2020, MaxMem=   524288000 cpu:               0.3 elap:               0.1
 (Enter /home/ubuntu/g16/l101.exe)
 --------------------------
 CF3COO-_UB3LYP-aug-cc-pVDZ
 --------------------------
 Symbolic Z-matrix:
 Charge = -1 Multiplicity = 1
 C                     6.73637   1.04452   0.56642 
 F                     7.71797   0.37726  -0.12138 
 F                     7.03358   2.37849   0.43929 
 F                     6.95064   0.74883   1.88122 
 C                     5.28358   0.70319   0.03149 
 O                     4.50202   0.2477    0.88893 
 O                     5.15434   0.95461  -1.18397 
 
 ITRead=  0  0  0  0  0  0  0
 MicOpt= -1 -1 -1 -1 -1 -1 -1
 NAtoms=      7 NQM=        7 NQMF=       0 NMMI=      0 NMMIF=      0
                NMic=       0 NMicF=      0.
                    Isotopes and Nuclear Properties:
 (Nuclear quadrupole moments (NQMom) in fm**2, nuclear magnetic moments (NMagM)
  in nuclear magnetons)

  Atom         1           2           3           4           5           6           7
 IAtWgt=          12          19          19          19          12          16          16
 AtmWgt=  12.0000000  18.9984033  18.9984033  18.9984033  12.0000000  15.9949146  15.9949146
 NucSpn=           0           1           1           1           0           0           0
 AtZEff=  -0.0000000  -0.0000000  -0.0000000  -0.0000000  -0.0000000  -0.0000000  -0.0000000
 NQMom=    0.0000000   0.0000000   0.0000000   0.0000000   0.0000000   0.0000000   0.0000000
 NMagM=    0.0000000   2.6288670   2.6288670   2.6288670   0.0000000   0.0000000   0.0000000
 AtZNuc=   6.0000000   9.0000000   9.0000000   9.0000000   6.0000000   8.0000000   8.0000000
 Leave Link  101 at Sat Aug  1 13:29:01 2020, MaxMem=   524288000 cpu:               0.6 elap:               0.1
 (Enter /home/ubuntu/g16/l103.exe)

 GradGradGradGradGradGradGradGradGradGradGradGradGradGradGradGradGradGrad
 Berny optimization.
 Initialization pass.
                           ----------------------------
                           !    Initial Parameters    !
                           ! (Angstroms and Degrees)  !
 --------------------------                            --------------------------
 ! Name  Definition              Value          Derivative Info.                !
 --------------------------------------------------------------------------------
 ! R1    R(1,2)                  1.3718         estimate D2E/DX2                !
 ! R2    R(1,3)                  1.3726         estimate D2E/DX2                !
 ! R3    R(1,4)                  1.3646         estimate D2E/DX2                !
 ! R4    R(1,5)                  1.5853         estimate D2E/DX2                !
 ! R5    R(5,6)                  1.2464         estimate D2E/DX2                !
 ! R6    R(5,7)                  1.2479         estimate D2E/DX2                !
 ! A1    A(2,1,3)              105.7445         estimate D2E/DX2                !
 ! A2    A(2,1,4)              105.387          estimate D2E/DX2                !
 ! A3    A(2,1,5)              112.4469         estimate D2E/DX2                !
 ! A4    A(3,1,4)              105.4168         estimate D2E/DX2                !
 ! A5    A(3,1,5)              112.1126         estimate D2E/DX2                !
 ! A6    A(4,1,5)              114.9838         estimate D2E/DX2                !
 ! A7    A(1,5,6)              114.9096         estimate D2E/DX2                !
 ! A8    A(1,5,7)              112.345          estimate D2E/DX2                !
 ! A9    A(6,5,7)              132.7449         estimate D2E/DX2                !
 ! D1    D(2,1,5,6)            122.8768         estimate D2E/DX2                !
 ! D2    D(2,1,5,7)            -57.3326         estimate D2E/DX2                !
 ! D3    D(3,1,5,6)           -118.1264         estimate D2E/DX2                !
 ! D4    D(3,1,5,7)             61.6643         estimate D2E/DX2                !
 ! D5    D(4,1,5,6)              2.2644         estimate D2E/DX2                !
 ! D6    D(4,1,5,7)           -177.945          estimate D2E/DX2                !
 --------------------------------------------------------------------------------
 Trust Radius=3.00D-01 FncErr=1.00D-07 GrdErr=1.00D-06 EigMax=2.50D+02 EigMin=1.00D-04
 Number of steps in this run=    100 maximum allowed number of steps=    100.
 GradGradGradGradGradGradGradGradGradGradGradGradGradGradGradGradGradGrad

 Leave Link  103 at Sat Aug  1 13:29:01 2020, MaxMem=   524288000 cpu:               0.0 elap:               0.0
 (Enter /home/ubuntu/g16/l202.exe)
                          Input orientation:                          
 ---------------------------------------------------------------------
 Center     Atomic      Atomic             Coordinates (Angstroms)
 Number     Number       Type             X           Y           Z
 ---------------------------------------------------------------------
      1          6           0        6.736370    1.044520    0.566420
      2          9           0        7.717970    0.377260   -0.121380
      3          9           0        7.033580    2.378490    0.439290
      4          9           0        6.950640    0.748830    1.881220
      5          6           0        5.283580    0.703190    0.031490
      6          8           0        4.502020    0.247700    0.888930
      7          8           0        5.154340    0.954610   -1.183970
 ---------------------------------------------------------------------
                    Distance matrix (angstroms):
                    1          2          3          4          5
     1  C    0.000000
     2  F    1.371803   0.000000
     3  F    1.372579   2.188073   0.000000
     4  F    1.364567   2.176526   2.177575   0.000000
     5  C    1.585325   2.460865   2.456711   2.490517   0.000000
     6  O    2.394004   3.373403   3.339347   2.689147   1.246399
     7  O    2.361095   2.834542   2.862508   3.558712   1.247901
                    6          7
     6  O    0.000000
     7  O    2.285204   0.000000
 Stoichiometry    C2F3O2(1-)
 Framework group  C1[X(C2F3O2)]
 Deg. of freedom    15
 Full point group                 C1      NOp   1
 Largest Abelian subgroup         C1      NOp   1
 Largest concise Abelian subgroup C1      NOp   1
                         Standard orientation:                         
 ---------------------------------------------------------------------
 Center     Atomic      Atomic             Coordinates (Angstroms)
 Number     Number       Type             X           Y           Z
 ---------------------------------------------------------------------
      1          6           0       -0.514922    0.012287   -0.001186
      2          9           0       -1.040592   -0.673717   -1.066509
      3          9           0       -1.030538   -0.588791    1.119892
      4          9           0       -1.090469    1.248685   -0.047123
      5          6           0        1.070401    0.011191   -0.003277
      6          8           0        1.596153    1.141276   -0.001981
      7          8           0        1.544036   -1.143333   -0.001714
 ---------------------------------------------------------------------
 Rotational constants (GHZ):           3.8269850           2.4707627           2.0573769
 Leave Link  202 at Sat Aug  1 13:29:02 2020, MaxMem=   524288000 cpu:               0.1 elap:               0.0
 (Enter /home/ubuntu/g16/l301.exe)
 Standard basis: Aug-CC-pVDZ (5D, 7F)
 Ernie: Thresh=  0.10000D-02 Tol=  0.10000D-05 Strict=F.
 Ernie:  14 primitive shells out of 175 were deleted.
 There are   175 symmetry adapted cartesian basis functions of A   symmetry.
 There are   161 symmetry adapted basis functions of A   symmetry.
   161 basis functions,   301 primitive gaussians,   175 cartesian basis functions
    28 alpha electrons       28 beta electrons
       nuclear repulsion energy       319.5443805514 Hartrees.
 IExCor=  402 DFT=T Ex+Corr=B3LYP ExCW=0 ScaHFX=  0.200000
 ScaDFX=  0.800000  0.720000  1.000000  0.810000 ScalE2=  1.000000  1.000000
 IRadAn=      5 IRanWt=     -1 IRanGd=            0 ICorTp=0 IEmpDi=  4
 NAtoms=    7 NActive=    7 NUniq=    7 SFac= 1.00D+00 NAtFMM=   60 NAOKFM=F Big=F
 Integral buffers will be    131072 words long.
 Raffenetti 2 integral format.
 Two-electron integral symmetry is turned on.
 Leave Link  301 at Sat Aug  1 13:29:02 2020, MaxMem=   524288000 cpu:               0.3 elap:               0.1
 (Enter /home/ubuntu/g16/l302.exe)
 NPDir=0 NMtPBC=     1 NCelOv=     1 NCel=       1 NClECP=     1 NCelD=      1
         NCelK=      1 NCelE2=     1 NClLst=     1 CellRange=     0.0.
 One-electron integrals computed using PRISM.
 One-electron integral symmetry used in STVInt
 NBasis=   161 RedAO= T EigKep=  1.68D-04  NBF=   161
 NBsUse=   161 1.00D-06 EigRej= -1.00D+00 NBFU=   161
 Precomputing XC quadrature grid using
 IXCGrd= 4 IRadAn=           5 IRanWt=          -1 IRanGd=           0 AccXCQ= 0.00D+00.
 Generated NRdTot=       0 NPtTot=           0 NUsed=           0 NTot=          32
 NSgBfM=   175   175   175   175   175 MxSgAt=     7 MxSgA2=     7.
 Leave Link  302 at Sat Aug  1 13:29:02 2020, MaxMem=   524288000 cpu:               1.2 elap:               0.2
 (Enter /home/ubuntu/g16/l303.exe)
 DipDrv:  MaxL=1.
 Leave Link  303 at Sat Aug  1 13:29:02 2020, MaxMem=   524288000 cpu:               0.2 elap:               0.0
 (Enter /home/ubuntu/g16/l401.exe)
 ExpMin= 4.04D-02 ExpMax= 1.47D+04 ExpMxC= 5.03D+02 IAcc=3 IRadAn=         5 AccDes= 0.00D+00
 Harris functional with IExCor=  402 and IRadAn=       5 diagonalized for initial guess.
 HarFok:  IExCor=  402 AccDes= 0.00D+00 IRadAn=         5 IDoV= 1 UseB2=F ITyADJ=14
 ICtDFT=  3500011 ScaDFX=  1.000000  1.000000  1.000000  1.000000
 FoFCou: FMM=F IPFlag=           0 FMFlag=      100000 FMFlg1=           0
         NFxFlg=           0 DoJE=T BraDBF=F KetDBF=T FulRan=T
         wScrn=  0.000000 ICntrl=       500 IOpCl=  0 I1Cent=   200000004 NGrid=           0
         NMat0=    1 NMatS0=      1 NMatT0=    0 NMatD0=    1 NMtDS0=    0 NMtDT0=    0
 Petite list used in FoFCou.
 Harris En= -526.479761117914    
 JPrj=0 DoOrth=F DoCkMO=F.
 Initial guess <Sx>= 0.0000 <Sy>= 0.0000 <Sz>= 0.0000 <S**2>= 0.0000 S= 0.0000
 Leave Link  401 at Sat Aug  1 13:29:03 2020, MaxMem=   524288000 cpu:               5.8 elap:               0.8
 (Enter /home/ubuntu/g16/l502.exe)
 Keep R1 and R2 ints in memory in canonical form, NReq=177082404.
 FoFCou: FMM=F IPFlag=           0 FMFlag=           0 FMFlg1=           0
         NFxFlg=           0 DoJE=F BraDBF=F KetDBF=F FulRan=T
         wScrn=  0.000000 ICntrl=       600 IOpCl=  0 I1Cent=           0 NGrid=           0
         NMat0=    1 NMatS0=  13041 NMatT0=    0 NMatD0=    1 NMtDS0=    0 NMtDT0=    0
 Symmetry not used in FoFCou.
 Two-electron integral symmetry not used.
 UHF open shell SCF:
 Using DIIS extrapolation, IDIIS=  1040.
 NGot=   524288000 LenX=   354143140 LenY=   354112074
 Requested convergence on RMS density matrix=1.00D-08 within 128 cycles.
 Requested convergence on MAX density matrix=1.00D-06.
 Requested convergence on             energy=1.00D-06.
 No special actions if energy rises.

 Cycle   1  Pass 1  IDiag  1:
 E= -526.144265530287    
 DIIS: error= 2.98D-02 at cycle   1 NSaved=   1.
 NSaved= 1 IEnMin= 1 EnMin= -526.144265530287     IErMin= 1 ErrMin= 2.98D-02
 ErrMax= 2.98D-02  0.00D+00 EMaxC= 1.00D-01 BMatC= 1.11D+00 BMatP= 1.11D+00
 IDIUse=3 WtCom= 7.02D-01 WtEn= 2.98D-01
 Coeff-Com:  0.100D+01
 Coeff-En:   0.100D+01
 Coeff:      0.100D+01
 Gap=     0.262 Goal=   None    Shift=    0.000
 Gap=     0.262 Goal=   None    Shift=    0.000
 GapD=    0.262 DampG=1.000 DampE=0.500 DampFc=0.5000 IDamp=-1.
 Damping current iteration by 5.00D-01
 RMSDP=9.24D-03 MaxDP=2.66D-01              OVMax= 3.35D-01

 Cycle   2  Pass 1  IDiag  1:
 E= -526.139105515052     Delta-E=        0.005160015235 Rises=F Damp=T
 DIIS: error= 1.62D-02 at cycle   2 NSaved=   2.
 NSaved= 2 IEnMin= 1 EnMin= -526.144265530287     IErMin= 2 ErrMin= 1.62D-02
 ErrMax= 1.62D-02  0.00D+00 EMaxC= 1.00D-01 BMatC= 2.62D-01 BMatP= 1.11D+00
 IDIUse=3 WtCom= 8.38D-01 WtEn= 1.62D-01
 Coeff-Com:  0.315D+00 0.685D+00
 Coeff-En:   0.509D+00 0.491D+00
 Coeff:      0.346D+00 0.654D+00
 Gap=     0.195 Goal=   None    Shift=    0.000
 Gap=     0.195 Goal=   None    Shift=    0.000
 RMSDP=2.94D-03 MaxDP=1.05D-01 DE= 5.16D-03 OVMax= 2.57D-01

 Cycle   3  Pass 1  IDiag  1:
 E= -526.347755666650     Delta-E=       -0.208650151598 Rises=F Damp=F
 DIIS: error= 3.67D-03 at cycle   3 NSaved=   3.
 NSaved= 3 IEnMin= 3 EnMin= -526.347755666650     IErMin= 3 ErrMin= 3.67D-03
 ErrMax= 3.67D-03  0.00D+00 EMaxC= 1.00D-01 BMatC= 1.76D-02 BMatP= 2.62D-01
 IDIUse=3 WtCom= 9.63D-01 WtEn= 3.67D-02
 Coeff-Com:  0.119D+00 0.266D+00 0.615D+00
 Coeff-En:   0.000D+00 0.000D+00 0.100D+01
 Coeff:      0.115D+00 0.256D+00 0.630D+00
 Gap=     0.223 Goal=   None    Shift=    0.000
 Gap=     0.223 Goal=   None    Shift=    0.000
 RMSDP=5.24D-04 MaxDP=1.78D-02 DE=-2.09D-01 OVMax= 2.22D-02

 Cycle   4  Pass 1  IDiag  1:
 E= -526.350452429406     Delta-E=       -0.002696762756 Rises=F Damp=F
 DIIS: error= 1.81D-03 at cycle   4 NSaved=   4.
 NSaved= 4 IEnMin= 4 EnMin= -526.350452429406     IErMin= 4 ErrMin= 1.81D-03
 ErrMax= 1.81D-03  0.00D+00 EMaxC= 1.00D-01 BMatC= 3.90D-03 BMatP= 1.76D-02
 IDIUse=3 WtCom= 9.82D-01 WtEn= 1.81D-02
 Coeff-Com:  0.676D-02 0.356D-01 0.313D+00 0.645D+00
 Coeff-En:   0.000D+00 0.000D+00 0.104D+00 0.896D+00
 Coeff:      0.663D-02 0.350D-01 0.309D+00 0.650D+00
 Gap=     0.223 Goal=   None    Shift=    0.000
 Gap=     0.223 Goal=   None    Shift=    0.000
 RMSDP=1.50D-04 MaxDP=4.59D-03 DE=-2.70D-03 OVMax= 5.08D-03

 Cycle   5  Pass 1  IDiag  1:
 E= -526.351016517569     Delta-E=       -0.000564088163 Rises=F Damp=F
 DIIS: error= 3.83D-04 at cycle   5 NSaved=   5.
 NSaved= 5 IEnMin= 5 EnMin= -526.351016517569     IErMin= 5 ErrMin= 3.83D-04
 ErrMax= 3.83D-04  0.00D+00 EMaxC= 1.00D-01 BMatC= 3.04D-04 BMatP= 3.90D-03
 IDIUse=3 WtCom= 9.96D-01 WtEn= 3.83D-03
 Coeff-Com: -0.355D-02-0.231D-03 0.104D+00 0.312D+00 0.587D+00
 Coeff-En:   0.000D+00 0.000D+00 0.000D+00 0.000D+00 0.100D+01
 Coeff:     -0.354D-02-0.230D-03 0.104D+00 0.311D+00 0.589D+00
 Gap=     0.221 Goal=   None    Shift=    0.000
 Gap=     0.221 Goal=   None    Shift=    0.000
 RMSDP=5.99D-05 MaxDP=1.46D-03 DE=-5.64D-04 OVMax= 1.94D-03

 Cycle   6  Pass 1  IDiag  1:
 E= -526.351073136876     Delta-E=       -0.000056619307 Rises=F Damp=F
 DIIS: error= 1.19D-04 at cycle   6 NSaved=   6.
 NSaved= 6 IEnMin= 6 EnMin= -526.351073136876     IErMin= 6 ErrMin= 1.19D-04
 ErrMax= 1.19D-04  0.00D+00 EMaxC= 1.00D-01 BMatC= 1.79D-05 BMatP= 3.04D-04
 IDIUse=3 WtCom= 9.99D-01 WtEn= 1.19D-03
 Coeff-Com: -0.150D-02-0.233D-02 0.269D-01 0.892D-01 0.265D+00 0.622D+00
 Coeff-En:   0.000D+00 0.000D+00 0.000D+00 0.000D+00 0.000D+00 0.100D+01
 Coeff:     -0.150D-02-0.233D-02 0.269D-01 0.891D-01 0.265D+00 0.623D+00
 Gap=     0.222 Goal=   None    Shift=    0.000
 Gap=     0.222 Goal=   None    Shift=    0.000
 RMSDP=1.29D-05 MaxDP=3.89D-04 DE=-5.66D-05 OVMax= 7.24D-04

 Cycle   7  Pass 1  IDiag  1:
 E= -526.351076134384     Delta-E=       -0.000002997508 Rises=F Damp=F
 DIIS: error= 5.83D-05 at cycle   7 NSaved=   7.
 NSaved= 7 IEnMin= 7 EnMin= -526.351076134384     IErMin= 7 ErrMin= 5.83D-05
 ErrMax= 5.83D-05  0.00D+00 EMaxC= 1.00D-01 BMatC= 3.59D-06 BMatP= 1.79D-05
 IDIUse=1 WtCom= 1.00D+00 WtEn= 0.00D+00
 Coeff-Com: -0.730D-03-0.169D-02 0.121D-01 0.408D-01 0.142D+00 0.387D+00
 Coeff-Com:  0.421D+00
 Coeff:     -0.730D-03-0.169D-02 0.121D-01 0.408D-01 0.142D+00 0.387D+00
 Coeff:      0.421D+00
 Gap=     0.222 Goal=   None    Shift=    0.000
 Gap=     0.222 Goal=   None    Shift=    0.000
 RMSDP=5.38D-06 MaxDP=2.40D-04 DE=-3.00D-06 OVMax= 4.97D-04

 Cycle   8  Pass 1  IDiag  1:
 E= -526.351076707765     Delta-E=       -0.000000573381 Rises=F Damp=F
 DIIS: error= 2.66D-05 at cycle   8 NSaved=   8.
 NSaved= 8 IEnMin= 8 EnMin= -526.351076707765     IErMin= 8 ErrMin= 2.66D-05
 ErrMax= 2.66D-05  0.00D+00 EMaxC= 1.00D-01 BMatC= 6.54D-07 BMatP= 3.59D-06
 IDIUse=1 WtCom= 1.00D+00 WtEn= 0.00D+00
 Coeff-Com: -0.672D-04-0.662D-03 0.176D-02 0.527D-02 0.304D-01 0.947D-01
 Coeff-Com:  0.296D+00 0.572D+00
 Coeff:     -0.672D-04-0.662D-03 0.176D-02 0.527D-02 0.304D-01 0.947D-01
 Coeff:      0.296D+00 0.572D+00
 Gap=     0.222 Goal=   None    Shift=    0.000
 Gap=     0.222 Goal=   None    Shift=    0.000
 RMSDP=2.08D-06 MaxDP=7.45D-05 DE=-5.73D-07 OVMax= 1.60D-04

 Cycle   9  Pass 1  IDiag  1:
 E= -526.351076830725     Delta-E=       -0.000000122960 Rises=F Damp=F
 DIIS: error= 3.55D-06 at cycle   9 NSaved=   9.
 NSaved= 9 IEnMin= 9 EnMin= -526.351076830725     IErMin= 9 ErrMin= 3.55D-06
 ErrMax= 3.55D-06  0.00D+00 EMaxC= 1.00D-01 BMatC= 2.58D-08 BMatP= 6.54D-07
 IDIUse=1 WtCom= 1.00D+00 WtEn= 0.00D+00
 Coeff-Com:  0.638D-04-0.127D-03-0.143D-03-0.123D-02 0.115D-02 0.757D-02
 Coeff-Com:  0.977D-01 0.264D+00 0.631D+00
 Coeff:      0.638D-04-0.127D-03-0.143D-03-0.123D-02 0.115D-02 0.757D-02
 Coeff:      0.977D-01 0.264D+00 0.631D+00
 Gap=     0.222 Goal=   None    Shift=    0.000
 Gap=     0.222 Goal=   None    Shift=    0.000
 RMSDP=6.15D-07 MaxDP=2.17D-05 DE=-1.23D-07 OVMax= 2.17D-05

 Cycle  10  Pass 1  IDiag  1:
 E= -526.351076836334     Delta-E=       -0.000000005609 Rises=F Damp=F
 DIIS: error= 7.26D-07 at cycle  10 NSaved=  10.
 NSaved=10 IEnMin=10 EnMin= -526.351076836334     IErMin=10 ErrMin= 7.26D-07
 ErrMax= 7.26D-07  0.00D+00 EMaxC= 1.00D-01 BMatC= 1.22D-09 BMatP= 2.58D-08
 IDIUse=1 WtCom= 1.00D+00 WtEn= 0.00D+00
 Coeff-Com:  0.225D-04-0.125D-04-0.148D-03-0.735D-03-0.179D-02-0.350D-02
 Coeff-Com:  0.126D-01 0.495D-01 0.235D+00 0.709D+00
 Coeff:      0.225D-04-0.125D-04-0.148D-03-0.735D-03-0.179D-02-0.350D-02
 Coeff:      0.126D-01 0.495D-01 0.235D+00 0.709D+00
 Gap=     0.222 Goal=   None    Shift=    0.000
 Gap=     0.222 Goal=   None    Shift=    0.000
 RMSDP=1.26D-07 MaxDP=3.45D-06 DE=-5.61D-09 OVMax= 3.18D-06

 Cycle  11  Pass 1  IDiag  1:
 E= -526.351076836546     Delta-E=       -0.000000000212 Rises=F Damp=F
 DIIS: error= 2.53D-07 at cycle  11 NSaved=  11.
 NSaved=11 IEnMin=11 EnMin= -526.351076836546     IErMin=11 ErrMin= 2.53D-07
 ErrMax= 2.53D-07  0.00D+00 EMaxC= 1.00D-01 BMatC= 1.38D-10 BMatP= 1.22D-09
 IDIUse=1 WtCom= 1.00D+00 WtEn= 0.00D+00
 Coeff-Com:  0.774D-05-0.138D-05-0.638D-04-0.305D-03-0.989D-03-0.180D-02
 Coeff-Com:  0.168D-02 0.114D-01 0.872D-01 0.342D+00 0.561D+00
 Coeff:      0.774D-05-0.138D-05-0.638D-04-0.305D-03-0.989D-03-0.180D-02
 Coeff:      0.168D-02 0.114D-01 0.872D-01 0.342D+00 0.561D+00
 Gap=     0.222 Goal=   None    Shift=    0.000
 Gap=     0.222 Goal=   None    Shift=    0.000
 RMSDP=3.18D-08 MaxDP=9.46D-07 DE=-2.12D-10 OVMax= 1.19D-06

 Cycle  12  Pass 1  IDiag  1:
 E= -526.351076836560     Delta-E=       -0.000000000015 Rises=F Damp=F
 DIIS: error= 1.02D-07 at cycle  12 NSaved=  12.
 NSaved=12 IEnMin=12 EnMin= -526.351076836560     IErMin=12 ErrMin= 1.02D-07
 ErrMax= 1.02D-07  0.00D+00 EMaxC= 1.00D-01 BMatC= 2.28D-11 BMatP= 1.38D-10
 IDIUse=1 WtCom= 1.00D+00 WtEn= 0.00D+00
 Coeff-Com:  0.302D-06 0.117D-05-0.692D-05-0.373D-04-0.243D-03-0.233D-03
 Coeff-Com: -0.119D-02-0.263D-02 0.694D-02 0.589D-01 0.313D+00 0.626D+00
 Coeff:      0.302D-06 0.117D-05-0.692D-05-0.373D-04-0.243D-03-0.233D-03
 Coeff:     -0.119D-02-0.263D-02 0.694D-02 0.589D-01 0.313D+00 0.626D+00
 Gap=     0.222 Goal=   None    Shift=    0.000
 Gap=     0.222 Goal=   None    Shift=    0.000
 RMSDP=1.09D-08 MaxDP=3.40D-07 DE=-1.48D-11 OVMax= 3.79D-07

 Cycle  13  Pass 1  IDiag  1:
 E= -526.351076836582     Delta-E=       -0.000000000021 Rises=F Damp=F
 DIIS: error= 5.61D-09 at cycle  13 NSaved=  13.
 NSaved=13 IEnMin=13 EnMin= -526.351076836582     IErMin=13 ErrMin= 5.61D-09
 ErrMax= 5.61D-09  0.00D+00 EMaxC= 1.00D-01 BMatC= 4.74D-14 BMatP= 2.28D-11
 IDIUse=1 WtCom= 1.00D+00 WtEn= 0.00D+00
 Coeff-Com: -0.440D-07 0.903D-07 0.141D-05 0.243D-05 0.302D-05 0.222D-04
 Coeff-Com: -0.826D-04-0.378D-03-0.126D-02-0.405D-02 0.103D-01 0.433D-01
 Coeff-Com:  0.952D+00
 Coeff:     -0.440D-07 0.903D-07 0.141D-05 0.243D-05 0.302D-05 0.222D-04
 Coeff:     -0.826D-04-0.378D-03-0.126D-02-0.405D-02 0.103D-01 0.433D-01
 Coeff:      0.952D+00
 Gap=     0.222 Goal=   None    Shift=    0.000
 Gap=     0.222 Goal=   None    Shift=    0.000
 RMSDP=1.29D-09 MaxDP=3.86D-08 DE=-2.14D-11 OVMax= 3.33D-08

 SCF Done:  E(UB3LYP) =  -526.351076837     A.U. after   13 cycles
            NFock= 13  Conv=0.13D-08     -V/T= 2.0056
 <Sx>= 0.0000 <Sy>= 0.0000 <Sz>= 0.0000 <S**2>=-0.0000 S=-0.0000
 <L.S>= 0.000000000000E+00
 KE= 5.234080050313D+02 PE=-1.897582604118D+03 EE= 5.282791416989D+02
 Annihilation of the first spin contaminant:
 S**2 before annihilation    -0.0000,   after    -0.0000
 Leave Link  502 at Sat Aug  1 13:29:26 2020, MaxMem=   524288000 cpu:             148.0 elap:              23.0
 (Enter /home/ubuntu/g16/l601.exe)
 Copying SCF densities to generalized density rwf, IOpCl= 1 IROHF=0.

 **********************************************************************

            Population analysis using the SCF density.

 **********************************************************************

 Orbital symmetries:
 Alpha Orbitals:
       Occupied  (A) (A) (A) (A) (A) (A) (A) (A) (A) (A) (A) (A)
                 (A) (A) (A) (A) (A) (A) (A) (A) (A) (A) (A) (A)
                 (A) (A) (A) (A)
       Virtual   (A) (A) (A) (A) (A) (A) (A) (A) (A) (A) (A) (A)
                 (A) (A) (A) (A) (A) (A) (A) (A) (A) (A) (A) (A)
                 (A) (A) (A) (A) (A) (A) (A) (A) (A) (A) (A) (A)
                 (A) (A) (A) (A) (A) (A) (A) (A) (A) (A) (A) (A)
                 (A) (A) (A) (A) (A) (A) (A) (A) (A) (A) (A) (A)
                 (A) (A) (A) (A) (A) (A) (A) (A) (A) (A) (A) (A)
                 (A) (A) (A) (A) (A) (A) (A) (A) (A) (A) (A) (A)
                 (A) (A) (A) (A) (A) (A) (A) (A) (A) (A) (A) (A)
                 (A) (A) (A) (A) (A) (A) (A) (A) (A) (A) (A) (A)
                 (A) (A) (A) (A) (A) (A) (A) (A) (A) (A) (A) (A)
                 (A) (A) (A) (A) (A) (A) (A) (A) (A) (A) (A) (A)
                 (A)
 Beta  Orbitals:
       Occupied  (A) (A) (A) (A) (A) (A) (A) (A) (A) (A) (A) (A)
                 (A) (A) (A) (A) (A) (A) (A) (A) (A) (A) (A) (A)
                 (A) (A) (A) (A)
       Virtual   (A) (A) (A) (A) (A) (A) (A) (A) (A) (A) (A) (A)
                 (A) (A) (A) (A) (A) (A) (A) (A) (A) (A) (A) (A)
                 (A) (A) (A) (A) (A) (A) (A) (A) (A) (A) (A) (A)
                 (A) (A) (A) (A) (A) (A) (A) (A) (A) (A) (A) (A)
                 (A) (A) (A) (A) (A) (A) (A) (A) (A) (A) (A) (A)
                 (A) (A) (A) (A) (A) (A) (A) (A) (A) (A) (A) (A)
                 (A) (A) (A) (A) (A) (A) (A) (A) (A) (A) (A) (A)
                 (A) (A) (A) (A) (A) (A) (A) (A) (A) (A) (A) (A)
                 (A) (A) (A) (A) (A) (A) (A) (A) (A) (A) (A) (A)
                 (A) (A) (A) (A) (A) (A) (A) (A) (A) (A) (A) (A)
                 (A) (A) (A) (A) (A) (A) (A) (A) (A) (A) (A) (A)
                 (A)
 The electronic state is 1-A.
     Natural Orbital Coefficients:
                           1         2         3         4         5
     Eigenvalues --     2.00000   2.00000   2.00000   2.00000   2.00000
   1 1   C  1S          0.05621   0.00635  -0.06525  -0.05590  -0.08913
   2        2S         -0.08491  -0.07663   0.22749   0.15700  -0.07424
   3        3S          0.13071  -0.04833  -0.10045   0.10933  -0.05692
   4        4S          0.08040  -0.00463  -0.12301  -0.02713  -0.00902
   5        5PX         0.07639  -0.02708  -0.11262   0.07989  -0.08019
   6        5PY         0.00798   0.00384  -0.00544   0.01121   0.00992
   7        5PZ         0.00289  -0.03834   0.02027  -0.00988   0.01628
   8        6PX         0.05382  -0.02516  -0.01425   0.12231  -0.04222
   9        6PY         0.00734  -0.00201  -0.01038  -0.01238   0.01191
  10        6PZ        -0.02424  -0.00285  -0.00773  -0.01147   0.00372
  11        7PX         0.02112  -0.00454  -0.02821   0.00995  -0.00751
  12        7PY         0.00142   0.00289  -0.00191   0.00564  -0.00096
  13        7PZ        -0.00247  -0.00004  -0.00024  -0.00474   0.00391
  14        8D 0       -0.00587  -0.00501   0.01008  -0.01067   0.00293
  15        8D+1        0.00058   0.00178  -0.00464   0.00461  -0.00522
  16        8D-1       -0.00276   0.00809  -0.00203   0.00311  -0.01166
  17        8D+2        0.01607  -0.01039  -0.01416   0.01794   0.00132
  18        8D-2       -0.00641   0.00035   0.00128  -0.00072  -0.00192
  19        9D 0        0.00094   0.00433  -0.00861  -0.00777  -0.00420
  20        9D+1       -0.00974   0.00435   0.00121  -0.00396  -0.00176
  21        9D-1        0.00832  -0.00125   0.00690   0.00185   0.00672
  22        9D+2        0.00784  -0.00469   0.00567   0.03125  -0.00588
  23        9D-2        0.00548   0.00100  -0.00308  -0.00152  -0.00066
  24 2   F  1S          0.43275   0.29589   0.30830  -0.21749  -0.08730
  25        2S         -0.03784   0.01048   0.08921   0.04602  -0.02226
  26        3S         -0.07030  -0.00118   0.09076   0.05430  -0.01826
  27        4S         -0.01567  -0.00497   0.02018   0.01807   0.00658
  28        5PX        -0.25212   0.11112   0.09083  -0.21931  -0.09641
  29        5PY         0.01744  -0.30569   0.14239  -0.06272   0.11807
  30        5PZ        -0.01230   0.15107   0.05404   0.19421  -0.08945
  31        6PX        -0.16822   0.07309   0.05680  -0.14586  -0.05841
  32        6PY         0.00829  -0.20000   0.09390  -0.04130   0.07969
  33        6PZ        -0.00830   0.09558   0.03479   0.12835  -0.05352
  34        7PX        -0.04008   0.01667   0.01320  -0.03789  -0.00817
  35        7PY         0.00385  -0.04606   0.01692  -0.01473   0.02306
  36        7PZ         0.00389   0.02436  -0.00298   0.03023  -0.00943
  37        8D 0       -0.00129   0.00158   0.00244   0.00269  -0.00119
  38        8D+1       -0.00308   0.00133   0.00290   0.00027  -0.00225
  39        8D-1       -0.00148  -0.00184   0.00469   0.00232   0.00006
  40        8D+2       -0.00051   0.00175  -0.00106  -0.00040  -0.00126
  41        8D-2       -0.00183  -0.00096   0.00229  -0.00066  -0.00069
  42        9D 0        0.00076   0.00434   0.00212   0.00755  -0.00313
  43        9D+1       -0.00510   0.00301   0.00265  -0.00015  -0.00330
  44        9D-1        0.00031  -0.00600   0.00667   0.00340   0.00216
  45        9D+2       -0.00129   0.00666  -0.00299  -0.00034  -0.00197
  46        9D-2       -0.00464  -0.00291   0.00340  -0.00355  -0.00195
  47 3   F  1S         -0.31492  -0.29250  -0.35151   0.02026   0.38478
  48        2S         -0.06042  -0.01131   0.08826   0.12961  -0.00297
  49        3S         -0.05591   0.00612   0.11903   0.14295  -0.01258
  50        4S         -0.00830   0.00484   0.02767   0.03292  -0.00219
  51        5PX         0.06220  -0.07208   0.16834  -0.07777   0.09267
  52        5PY        -0.02769   0.16228  -0.01065   0.17403  -0.06470
  53        5PZ         0.12368   0.14517  -0.16623   0.11972  -0.05594
  54        6PX         0.04453  -0.04383   0.10837  -0.04962   0.05943
  55        6PY        -0.01937   0.11060  -0.00691   0.11610  -0.04537
  56        6PZ         0.08048   0.08719  -0.10584   0.07133  -0.03029
  57        7PX         0.01238  -0.00561   0.02583  -0.01305   0.02163
  58        7PY        -0.00434   0.03014  -0.00957   0.02456  -0.01161
  59        7PZ         0.01351   0.01832  -0.01429   0.01895  -0.00818
  60        8D 0       -0.00266  -0.00166   0.00431  -0.00006   0.00054
  61        8D+1        0.00092   0.00220  -0.00443  -0.00026  -0.00044
  62        8D-1        0.00207   0.00080  -0.00442  -0.00238   0.00007
  63        8D+2        0.00056  -0.00092  -0.00022  -0.00071   0.00023
  64        8D-2       -0.00035  -0.00019   0.00201   0.00114  -0.00016
  65        9D 0       -0.00562  -0.00350   0.00564  -0.00251   0.00139
  66        9D+1       -0.00065   0.00337  -0.00539  -0.00062   0.00110
  67        9D-1        0.00404  -0.00286  -0.00307  -0.00517   0.00274
  68        9D+2        0.00247  -0.00428  -0.00039  -0.00290  -0.00025
  69        9D-2        0.00072   0.00190   0.00230   0.00377  -0.00025
  70 4   F  1S          0.07141   0.01375  -0.00469  -0.16189   0.11251
  71        2S         -0.06435   0.01090   0.13770   0.10975  -0.05525
  72        3S         -0.07930   0.01465   0.15588   0.13100  -0.06990
  73        4S         -0.01057   0.00232   0.03367   0.04263  -0.01848
  74        5PX        -0.17199   0.05296   0.11622  -0.06586  -0.00635
  75        5PY        -0.00322   0.00920  -0.08784  -0.03330  -0.02534
  76        5PZ         0.05213  -0.26407   0.12025  -0.10241   0.00855
  77        6PX        -0.11234   0.03398   0.07522  -0.04117  -0.00383
  78        6PY         0.00200   0.00566  -0.05933  -0.02577  -0.01199
  79        6PZ         0.03401  -0.17157   0.07787  -0.06625   0.00480
  80        7PX        -0.02724   0.00973   0.01936  -0.00914   0.00250
  81        7PY        -0.00570  -0.00313  -0.00346  -0.00784  -0.00037
  82        7PZ         0.00905  -0.04114   0.01686  -0.01511   0.00133
  83        8D 0        0.00151   0.00023  -0.00337  -0.00176   0.00025
  84        8D+1        0.00001  -0.00121   0.00078  -0.00044  -0.00012
  85        8D-1       -0.00004   0.00216  -0.00148   0.00069   0.00033
  86        8D+2        0.00076   0.00085  -0.00403  -0.00187  -0.00045
  87        8D-2        0.00304  -0.00003  -0.00453  -0.00141   0.00106
  88        9D 0        0.00146   0.00009  -0.00308  -0.00191   0.00087
  89        9D+1        0.00097  -0.00385   0.00210  -0.00099   0.00260
  90        9D-1       -0.00181   0.00778  -0.00400   0.00250   0.00005
  91        9D+2        0.00157   0.00068  -0.00530  -0.00177   0.00048
  92        9D-2        0.00558   0.00049  -0.00608  -0.00230   0.00297
  93 5   C  1S          0.10793   0.06343   0.05349  -0.31826  -0.06238
  94        2S         -0.04501  -0.04815   0.06265   0.04759  -0.02015
  95        3S         -0.10307  -0.01669   0.09138  -0.06392   0.00014
  96        4S         -0.07684  -0.00228   0.11439   0.01367  -0.00048
  97        5PX        -0.08606   0.03317   0.04910  -0.19530   0.04137
  98        5PY        -0.09557   0.02558   0.05269  -0.09436  -0.02360
  99        5PZ        -0.19709   0.03477  -0.08792  -0.04180  -0.16681
 100        6PX         0.03169   0.00931  -0.02031  -0.00152   0.00124
 101        6PY        -0.02791   0.01045   0.01935  -0.00851  -0.01182
 102        6PZ        -0.06757   0.01179  -0.03461  -0.01160  -0.06570
 103        7PX         0.00772   0.00261  -0.01424  -0.01297   0.00536
 104        7PY        -0.01002   0.00137   0.00913  -0.01133  -0.00306
 105        7PZ        -0.00425  -0.00140  -0.00050  -0.00220  -0.00308
 106        8D 0        0.00673   0.00067  -0.00770  -0.00175  -0.00110
 107        8D+1       -0.00811   0.00364  -0.00355  -0.00174  -0.00460
 108        8D-1       -0.01339   0.03059   0.00946   0.00174   0.04387
 109        8D+2        0.00367  -0.00625   0.00209  -0.00041  -0.01884
 110        8D-2       -0.00586   0.00159  -0.00160  -0.00360  -0.00261
 111        9D 0        0.00501  -0.00211  -0.00517  -0.00102  -0.00031
 112        9D+1       -0.00169   0.00045   0.00140  -0.00257   0.00364
 113        9D-1       -0.00812   0.01400   0.00254   0.00103   0.01721
 114        9D+2       -0.02602  -0.00458   0.02556  -0.01843  -0.00265
 115        9D-2        0.01183  -0.00033  -0.01280   0.00382   0.00359
 116 6   O  1S          0.04873   0.15010  -0.02831  -0.18486  -0.00557
 117        2S          0.03557  -0.01307  -0.04380   0.05866   0.03861
 118        3S          0.07585  -0.02685  -0.07752   0.10414   0.04775
 119        4S          0.06910  -0.01280  -0.06485   0.04525   0.01453
 120        5PX         0.07001  -0.02035  -0.08650  -0.00389  -0.06933
 121        5PY         0.15566  -0.01353  -0.09543   0.15564   0.04525
 122        5PZ        -0.25639   0.24568  -0.00642  -0.02278   0.17229
 123        6PX         0.02883  -0.01161  -0.04300  -0.01078  -0.04757
 124        6PY         0.06149  -0.00384  -0.02996   0.06372   0.02836
 125        6PZ        -0.16163   0.15965  -0.00028  -0.01441   0.11953
 126        7PX         0.00426  -0.00410  -0.01130   0.00582  -0.02277
 127        7PY         0.00820  -0.00147   0.00119   0.01196   0.00791
 128        7PZ        -0.03973   0.05612   0.00714   0.00063   0.05840
 129        8D 0        0.00421  -0.00005  -0.00320   0.00281   0.00050
 130        8D+1        0.00446  -0.00311   0.00077   0.00057  -0.00059
 131        8D-1        0.00961  -0.00581   0.00212   0.00139   0.00019
 132        8D+2        0.00450  -0.00012  -0.00239   0.00627   0.00100
 133        8D-2       -0.00431   0.00005   0.00359  -0.00075   0.00038
 134        9D 0       -0.00524   0.00073   0.00512  -0.00538   0.00039
 135        9D+1        0.00507  -0.00163   0.00116   0.00132   0.00120
 136        9D-1        0.00754  -0.00344   0.00202   0.00137   0.00246
 137        9D+2       -0.00362   0.00163   0.00254  -0.00467  -0.00016
 138        9D-2        0.00498  -0.00228  -0.00252   0.00938  -0.00107
 139 7   O  1S          0.04898  -0.03361   0.03111  -0.00292   0.01044
 140        2S         -0.01668   0.03493  -0.01448   0.03820   0.00841
 141        3S         -0.02741   0.04966  -0.02239   0.03722  -0.00091
 142        4S         -0.00247   0.02135  -0.02644  -0.00948  -0.01377
 143        5PX        -0.01285  -0.00621   0.02310  -0.11615  -0.06619
 144        5PY         0.01051  -0.05571   0.04426  -0.01561   0.02230
 145        5PZ        -0.07510  -0.18374  -0.14054  -0.05170  -0.45039
 146        6PX         0.00039  -0.01008   0.01110  -0.06459  -0.03675
 147        6PY         0.01082  -0.02988   0.01532  -0.00843   0.00588
 148        6PZ        -0.04280  -0.12311  -0.08905  -0.03276  -0.29021
 149        7PX         0.01058  -0.00901  -0.00028  -0.00580  -0.01352
 150        7PY         0.00814  -0.00341  -0.00496  -0.00439   0.00058
 151        7PZ         0.00003  -0.04424  -0.02530  -0.00759  -0.09165
 152        8D 0       -0.00016   0.00127  -0.00067  -0.00143  -0.00052
 153        8D+1        0.00229   0.00179   0.00223   0.00086   0.00601
 154        8D-1       -0.00606  -0.00302  -0.00493  -0.00207  -0.01316
 155        8D+2        0.00166   0.00122  -0.00244   0.00327  -0.00039
 156        8D-2       -0.00189   0.00139   0.00083  -0.00636  -0.00139
 157        9D 0       -0.00130  -0.00012   0.00265  -0.00135   0.00150
 158        9D+1        0.00143   0.00251   0.00102   0.00083   0.00367
 159        9D-1       -0.00583  -0.00125  -0.00361  -0.00160  -0.00918
 160        9D+2        0.00060   0.00108   0.00094   0.00047  -0.00001
 161        9D-2       -0.00069   0.00077   0.00052  -0.00518   0.00241
                           6         7         8         9        10
     Eigenvalues --     2.00000   2.00000   2.00000   2.00000   2.00000
   1 1   C  1S         -0.34041   0.11243   0.13989  -0.00303   0.09844
   2        2S          0.12659   0.06835   0.14351   0.13467   0.05278
   3        3S          0.15854   0.15854   0.10580   0.31081  -0.00646
   4        4S         -0.00618   0.03887   0.00232   0.14610   0.03520
   5        5PX         0.02215   0.05760  -0.00650   0.32206   0.02834
   6        5PY        -0.03997  -0.03370  -0.09682  -0.03807   0.15431
   7        5PZ         0.00660  -0.01217   0.02059   0.00737   0.05779
   8        6PX         0.06291   0.06264  -0.02599   0.14768  -0.00088
   9        6PY        -0.00904  -0.00411  -0.01000  -0.00460   0.02743
  10        6PZ         0.00576   0.01191   0.00095   0.01197   0.00719
  11        7PX         0.00122   0.01282  -0.00440   0.05270   0.00688
  12        7PY         0.00184  -0.00158  -0.00580  -0.00159   0.00318
  13        7PZ         0.00232  -0.00186   0.00662  -0.00166   0.00775
  14        8D 0       -0.00119  -0.00355   0.01023  -0.00660  -0.00265
  15        8D+1        0.00360   0.01199  -0.00321  -0.01145   0.01473
  16        8D-1       -0.00317   0.00564  -0.01024   0.00694  -0.02396
  17        8D+2        0.01188   0.02056   0.00778   0.01720  -0.00292
  18        8D-2        0.00373   0.00153   0.01078   0.01340  -0.02777
  19        9D 0       -0.00795  -0.00744  -0.00301   0.01084   0.00473
  20        9D+1       -0.00150   0.00910  -0.00337   0.00034  -0.00163
  21        9D-1       -0.00166  -0.00389   0.00226  -0.00193   0.00675
  22        9D+2        0.01699   0.01448  -0.00254   0.01304  -0.00302
  23        9D-2       -0.00282  -0.00410  -0.00280   0.00770   0.00842
  24 2   F  1S          0.11441   0.08150  -0.03905  -0.02483  -0.28158
  25        2S         -0.02868  -0.04727  -0.14715   0.01048   0.03850
  26        3S         -0.04678  -0.06899  -0.17933  -0.00400   0.06646
  27        4S         -0.00492  -0.00809  -0.04289  -0.02070   0.02370
  28        5PX        -0.05093  -0.06168   0.05745  -0.02319  -0.20255
  29        5PY        -0.00577   0.22933  -0.00829  -0.11137   0.04112
  30        5PZ         0.12766  -0.03860   0.15041  -0.01868  -0.14594
  31        6PX        -0.03677  -0.04140   0.03093  -0.02161  -0.12173
  32        6PY        -0.00934   0.14095  -0.01507  -0.07404   0.03433
  33        6PZ         0.07493  -0.03604   0.08183  -0.01396  -0.07551
  34        7PX        -0.00990  -0.00952   0.00174  -0.02758  -0.02388
  35        7PY        -0.00715   0.03236  -0.00854  -0.01782   0.00287
  36        7PZ         0.01171  -0.00917   0.00588  -0.00485  -0.00978
  37        8D 0        0.00230  -0.00041   0.00244  -0.00040  -0.00313
  38        8D+1        0.00108  -0.00023   0.00193   0.00149  -0.00334
  39        8D-1        0.00206   0.00209   0.00167  -0.00222  -0.00022
  40        8D+2       -0.00038  -0.00116   0.00031   0.00256  -0.00237
  41        8D-2        0.00020   0.00065   0.00055   0.00074  -0.00119
  42        9D 0        0.00348  -0.00508   0.00261  -0.00030   0.00027
  43        9D+1        0.00131  -0.00194   0.00225   0.00429   0.00006
  44        9D-1        0.00135   0.00122  -0.00074  -0.00120   0.00328
  45        9D+2        0.00062  -0.00172   0.00160   0.00441  -0.00301
  46        9D-2       -0.00136   0.00072  -0.00102   0.00391  -0.00121
  47 3   F  1S          0.33604  -0.29419   0.02559   0.06060  -0.16429
  48        2S         -0.05804  -0.09981  -0.18008  -0.02995  -0.00252
  49        3S         -0.09111  -0.11224  -0.22029  -0.05923   0.00961
  50        4S         -0.01738  -0.02040  -0.05156  -0.03533  -0.00668
  51        5PX         0.01096  -0.12246   0.15003  -0.17905   0.27460
  52        5PY         0.09721  -0.08530   0.13153  -0.05585  -0.00554
  53        5PZ        -0.06377  -0.09801  -0.15359  -0.05281   0.13755
  54        6PX         0.00130  -0.08527   0.08915  -0.12424   0.17769
  55        6PY         0.05718  -0.05862   0.07326  -0.04207  -0.00379
  56        6PZ        -0.03020  -0.05945  -0.07487  -0.02800   0.08443
  57        7PX        -0.00326  -0.02456   0.01443  -0.04860   0.03343
  58        7PY         0.00999  -0.01397   0.01345  -0.01541  -0.00810
  59        7PZ         0.00133  -0.01037  -0.00405  -0.00179   0.02004
  60        8D 0        0.00167   0.00107   0.00254  -0.00005  -0.00342
  61        8D+1       -0.00139   0.00051  -0.00308  -0.00024  -0.00222
  62        8D-1       -0.00202   0.00027  -0.00247   0.00113  -0.00026
  63        8D+2       -0.00007   0.00041   0.00054   0.00079   0.00103
  64        8D-2        0.00091  -0.00090   0.00156  -0.00006   0.00212
  65        9D 0        0.00005   0.00354  -0.00098   0.00196  -0.00475
  66        9D+1       -0.00071   0.00098  -0.00146  -0.00199  -0.00499
  67        9D-1       -0.00240   0.00058  -0.00030   0.00127  -0.00049
  68        9D+2        0.00006   0.00143   0.00066   0.00125   0.00252
  69        9D-2        0.00102  -0.00347   0.00168   0.00115   0.00580
  70 4   F  1S          0.08168  -0.02980  -0.01920  -0.01278  -0.09525
  71        2S         -0.08098  -0.10761  -0.19467  -0.02061   0.02621
  72        3S         -0.09530  -0.12331  -0.21760  -0.01836   0.01193
  73        4S         -0.00290  -0.01702  -0.03549   0.00356  -0.01380
  74        5PX        -0.05740  -0.10051  -0.03575  -0.11115  -0.04962
  75        5PY        -0.06826  -0.01671  -0.03992   0.12341  -0.23400
  76        5PZ        -0.11092   0.12843  -0.17778   0.09691  -0.18978
  77        6PX        -0.03715  -0.06472  -0.02196  -0.07471  -0.04380
  78        6PY        -0.04063  -0.00643  -0.02181   0.07202  -0.13219
  79        6PZ        -0.07205   0.08482  -0.11583   0.06162  -0.12289
  80        7PX        -0.00722  -0.01382  -0.00662  -0.03636  -0.01862
  81        7PY        -0.00589   0.00173   0.00279   0.01083  -0.01932
  82        7PZ        -0.01689   0.02154  -0.02813   0.01338  -0.02902
  83        8D 0       -0.00081   0.00039   0.00002   0.00145  -0.00263
  84        8D+1       -0.00051   0.00080  -0.00098   0.00045  -0.00057
  85        8D-1        0.00097  -0.00064   0.00163  -0.00130   0.00206
  86        8D+2       -0.00154  -0.00029  -0.00043   0.00356  -0.00389
  87        8D-2       -0.00002   0.00163   0.00101   0.00031  -0.00308
  88        9D 0       -0.00224   0.00048  -0.00176  -0.00134   0.00036
  89        9D+1       -0.00099   0.00260  -0.00173   0.00070   0.00100
  90        9D-1        0.00287  -0.00398   0.00486  -0.00224   0.00412
  91        9D+2       -0.00216   0.00026  -0.00164   0.00178  -0.00355
  92        9D-2       -0.00028   0.00216   0.00003  -0.00456   0.00075
  93 5   C  1S          0.69033  -0.02392  -0.36578   0.02246   0.10185
  94        2S          0.09470   0.03374   0.06912   0.07815   0.03822
  95        3S         -0.02580  -0.06149   0.09310  -0.04881   0.03051
  96        4S          0.01877  -0.03399   0.03632  -0.09848  -0.03937
  97        5PX        -0.09250  -0.14071  -0.02253  -0.13547   0.05855
  98        5PY        -0.03890  -0.08619   0.01417   0.08645   0.02697
  99        5PZ         0.03272   0.19559  -0.06346  -0.06657   0.06690
 100        6PX         0.03049   0.01172  -0.00451   0.00153  -0.02449
 101        6PY         0.00137  -0.01407   0.00916   0.01931   0.00630
 102        6PZ         0.01383   0.07067  -0.02251  -0.03037   0.03172
 103        7PX        -0.00599  -0.00069  -0.00453  -0.00588   0.01000
 104        7PY        -0.00336  -0.00676   0.00531   0.00861   0.00462
 105        7PZ        -0.00179   0.00579  -0.00480   0.00157  -0.00565
 106        8D 0       -0.00367  -0.00018  -0.00126   0.00701   0.00063
 107        8D+1        0.00068   0.00725  -0.00270  -0.00134  -0.00048
 108        8D-1       -0.00422   0.02261  -0.00554   0.01500   0.00645
 109        8D+2       -0.00199  -0.00579   0.00376   0.06415   0.02172
 110        8D-2       -0.00183   0.00333  -0.00389  -0.00413   0.00064
 111        9D 0        0.00473   0.00294  -0.00201   0.01101   0.00414
 112        9D+1       -0.00163  -0.00109  -0.00018   0.00454  -0.00690
 113        9D-1       -0.00144   0.01177  -0.00391   0.00764   0.00132
 114        9D+2       -0.01464  -0.02232   0.00086   0.00445   0.02759
 115        9D-2        0.00238   0.00785  -0.00040  -0.00247  -0.00563
 116 6   O  1S          0.08371  -0.06729   0.10510  -0.02839   0.23251
 117        2S         -0.00228   0.04960  -0.10835  -0.06630   0.01338
 118        3S         -0.01060   0.08313  -0.14968  -0.07344   0.00028
 119        4S         -0.00753   0.04646  -0.05612  -0.00289   0.00494
 120        5PX        -0.03608   0.02387  -0.09836   0.20045   0.15225
 121        5PY         0.03987   0.11100  -0.06174  -0.08605  -0.11087
 122        5PZ        -0.00414   0.32143  -0.09252   0.05110   0.09373
 123        6PX        -0.02269   0.00829  -0.05848   0.12958   0.10755
 124        6PY         0.02204   0.04134  -0.02597  -0.06186  -0.06006
 125        6PZ        -0.00439   0.20450  -0.05860   0.03603   0.05829
 126        7PX        -0.00115   0.00676  -0.01557   0.06062   0.03075
 127        7PY         0.00803   0.00345   0.00370  -0.01394  -0.01456
 128        7PZ        -0.00317   0.05510  -0.01384   0.01703   0.01886
 129        8D 0        0.00076   0.00280  -0.00193  -0.00164  -0.00169
 130        8D+1       -0.00022  -0.00536   0.00161   0.00001  -0.00176
 131        8D-1       -0.00064  -0.01090   0.00331   0.00042  -0.00330
 132        8D+2        0.00248   0.00435  -0.00026  -0.00250  -0.00579
 133        8D-2        0.00070  -0.00155   0.00325  -0.00020  -0.00122
 134        9D 0       -0.00125  -0.00460  -0.00030  -0.00331   0.00274
 135        9D+1       -0.00013  -0.00569   0.00214   0.00005  -0.00023
 136        9D-1       -0.00066  -0.00808   0.00251   0.00112  -0.00230
 137        9D+2       -0.00039  -0.00427   0.00023   0.00063  -0.00289
 138        9D-2        0.00285   0.00603   0.00258   0.00564  -0.00331
 139 7   O  1S         -0.02731   0.01454   0.05140  -0.04197  -0.09460
 140        2S          0.01118   0.03015  -0.04479  -0.00796  -0.00881
 141        3S         -0.00124   0.02434  -0.06510   0.03169   0.00113
 142        4S         -0.02100  -0.00645  -0.02868   0.06628   0.02404
 143        5PX        -0.05647  -0.13917   0.01541   0.37032   0.10655
 144        5PY         0.01790  -0.02962   0.06796  -0.01486   0.02837
 145        5PZ         0.05349  -0.00041  -0.01590  -0.15290  -0.00762
 146        6PX        -0.02892  -0.08059   0.01393   0.22907   0.06025
 147        6PY         0.00314  -0.01889   0.03751   0.02773   0.01517
 148        6PZ         0.03394  -0.00632  -0.00882  -0.09771  -0.00747
 149        7PX         0.00099  -0.01417   0.01101   0.08662   0.01130
 150        7PY        -0.00255  -0.00747   0.00669   0.01879   0.00171
 151        7PZ         0.00991  -0.02004   0.00272  -0.02879  -0.00931
 152        8D 0       -0.00096  -0.00108  -0.00115   0.00190  -0.00055
 153        8D+1       -0.00085  -0.00150   0.00065   0.00214  -0.00054
 154        8D-1        0.00183   0.00438  -0.00177  -0.00464   0.00122
 155        8D+2        0.00093   0.00332  -0.00179  -0.00144  -0.00288
 156        8D-2       -0.00316  -0.00565  -0.00068   0.00709   0.00213
 157        9D 0        0.00016  -0.00157  -0.00110  -0.00612   0.00134
 158        9D+1       -0.00069  -0.00262   0.00070   0.00242  -0.00264
 159        9D-1        0.00139   0.00477  -0.00179  -0.00322   0.00156
 160        9D+2        0.00169   0.00112  -0.00166  -0.00713   0.00110
 161        9D-2       -0.00115  -0.00337  -0.00198  -0.00638   0.00053
                          11        12        13        14        15
     Eigenvalues --     2.00000   2.00000   2.00000   2.00000   2.00000
   1 1   C  1S         -0.13510   0.16382  -0.17049  -0.11643   0.16833
   2        2S          0.05544  -0.01840  -0.04796  -0.03609   0.02540
   3        3S          0.08316  -0.03246  -0.01891  -0.10771  -0.01128
   4        4S          0.01833  -0.02994   0.00278  -0.00926  -0.04161
   5        5PX        -0.00314  -0.02422   0.03047   0.03165  -0.00733
   6        5PY         0.01352  -0.04605  -0.21959  -0.05144  -0.15292
   7        5PZ         0.02346  -0.04247   0.03375   0.07193  -0.06490
   8        6PX         0.01370  -0.02344   0.00500  -0.04142   0.01519
   9        6PY        -0.01350  -0.02904  -0.01722   0.02238  -0.05242
  10        6PZ        -0.00539  -0.01751   0.00070   0.06135   0.01379
  11        7PX         0.00289  -0.01095   0.00085  -0.00571  -0.00787
  12        7PY         0.00021   0.00600  -0.01615  -0.00845  -0.01514
  13        7PZ        -0.01679  -0.01457   0.00214  -0.00360   0.00684
  14        8D 0       -0.00335  -0.00926   0.02291   0.01570   0.01830
  15        8D+1        0.01415   0.00560   0.01825  -0.00187   0.00400
  16        8D-1        0.01659   0.01811  -0.01104   0.02163   0.00436
  17        8D+2       -0.00704  -0.01635   0.00125   0.00252   0.00243
  18        8D-2        0.00460   0.00814   0.02544   0.00036   0.01232
  19        9D 0        0.00328   0.00389  -0.01104  -0.00572  -0.00446
  20        9D+1        0.00076  -0.00529  -0.00111  -0.00759  -0.00876
  21        9D-1        0.00045  -0.00102   0.00225  -0.01497  -0.01077
  22        9D+2        0.00393  -0.00321  -0.01115  -0.01464  -0.00010
  23        9D-2       -0.00459  -0.00785  -0.00644  -0.00005  -0.01238
  24 2   F  1S          0.35397  -0.43673  -0.00415  -0.24811  -0.04607
  25        2S         -0.08811  -0.11086   0.05638   0.27963   0.12355
  26        3S         -0.11824  -0.11631   0.05585   0.34550   0.12573
  27        4S         -0.01798  -0.02453   0.01126   0.07938   0.02201
  28        5PX        -0.14672  -0.02612  -0.09614   0.09310   0.07171
  29        5PY         0.02402  -0.07227   0.02796  -0.11038   0.14227
  30        5PZ         0.22674   0.24747   0.13315  -0.04053   0.01836
  31        6PX        -0.10031  -0.02298  -0.06518   0.06647   0.04067
  32        6PY         0.00947  -0.05096   0.01641  -0.06001   0.08901
  33        6PZ         0.13682   0.14997   0.07870  -0.01299   0.00050
  34        7PX        -0.02542  -0.01150  -0.01448   0.02054   0.00189
  35        7PY         0.00221  -0.00956   0.01326  -0.00059   0.02595
  36        7PZ         0.03288   0.03234   0.01667   0.01131  -0.00409
  37        8D 0        0.00264   0.00323   0.00296   0.00038   0.00138
  38        8D+1       -0.00015   0.00116   0.00091   0.00175   0.00291
  39        8D-1        0.00130   0.00013   0.00060  -0.00093   0.00292
  40        8D+2       -0.00039   0.00094   0.00004   0.00178  -0.00020
  41        8D-2       -0.00084  -0.00060  -0.00047   0.00046   0.00203
  42        9D 0        0.00565   0.00461   0.00368   0.00319  -0.00384
  43        9D+1       -0.00288  -0.00138   0.00029   0.00395   0.00158
  44        9D-1        0.00248  -0.00073  -0.00089   0.00142   0.00095
  45        9D+2       -0.00135   0.00198  -0.00007   0.00203   0.00001
  46        9D-2       -0.00321  -0.00326  -0.00348   0.00058   0.00089
  47 3   F  1S          0.28592  -0.24903  -0.04936   0.00651   0.16012
  48        2S          0.01329  -0.01050   0.04036  -0.13919  -0.11619
  49        3S         -0.00463   0.00002   0.04055  -0.16300  -0.14254
  50        4S         -0.01085  -0.00066  -0.00563  -0.04875  -0.02295
  51        5PX         0.12798   0.07134   0.32002   0.19936  -0.02909
  52        5PY         0.00167  -0.10951  -0.08364   0.14620   0.07962
  53        5PZ         0.12589   0.08152  -0.02091   0.08577  -0.09440
  54        6PX         0.08242   0.05177   0.20094   0.12580  -0.02305
  55        6PY         0.00062  -0.06558  -0.05478   0.08874   0.05108
  56        6PZ         0.08353   0.04882  -0.00275   0.06113  -0.05252
  57        7PX         0.01262   0.01366   0.03804   0.02575  -0.00758
  58        7PY        -0.00260  -0.01172  -0.00149   0.01473   0.01996
  59        7PZ         0.02872   0.01628   0.00715   0.02515  -0.00669
  60        8D 0       -0.00091   0.00020   0.00166  -0.00268   0.00170
  61        8D+1       -0.00114   0.00012  -0.00476  -0.00133  -0.00040
  62        8D-1       -0.00012   0.00232   0.00144  -0.00064   0.00004
  63        8D+2        0.00012   0.00056   0.00319  -0.00022   0.00037
  64        8D-2        0.00114  -0.00069   0.00164   0.00170  -0.00041
  65        9D 0       -0.00510  -0.00193  -0.00229  -0.00623   0.00066
  66        9D+1       -0.00351  -0.00248  -0.00575  -0.00335   0.00077
  67        9D-1        0.00074   0.00378   0.00424   0.00160  -0.00066
  68        9D+2        0.00106   0.00175   0.00511   0.00001  -0.00001
  69        9D-2        0.00372   0.00086   0.00315   0.00298  -0.00212
  70 4   F  1S          0.03851  -0.13557   0.14440  -0.12070  -0.01692
  71        2S         -0.04432   0.02098   0.01789  -0.06170   0.14957
  72        3S         -0.05271   0.03862   0.04274  -0.05833   0.19141
  73        4S         -0.01277   0.01169   0.01587  -0.01190   0.04745
  74        5PX         0.12045   0.16463  -0.11106  -0.08331  -0.01835
  75        5PY        -0.00680   0.08187   0.25423   0.05932   0.21636
  76        5PZ         0.25215   0.20153  -0.12534   0.24401  -0.09301
  77        6PX         0.07447   0.10839  -0.05940  -0.04852   0.00023
  78        6PY         0.00281   0.04822   0.13195   0.02676   0.11448
  79        6PZ         0.16342   0.13114  -0.07831   0.15375  -0.05885
  80        7PX         0.01587   0.03177  -0.00854  -0.01408   0.01331
  81        7PY         0.00720   0.00628   0.02201   0.00376   0.02392
  82        7PZ         0.03807   0.03321  -0.01617   0.03208  -0.00968
  83        8D 0       -0.00070   0.00037   0.00382   0.00191   0.00188
  84        8D+1        0.00176   0.00095  -0.00050   0.00162  -0.00089
  85        8D-1       -0.00278  -0.00169   0.00222  -0.00368   0.00183
  86        8D+2       -0.00001   0.00186   0.00406   0.00169   0.00150
  87        8D-2       -0.00204  -0.00098   0.00501   0.00250   0.00196
  88        9D 0        0.00069   0.00048  -0.00080  -0.00011   0.00074
  89        9D+1        0.00364   0.00215   0.00138   0.00306  -0.00097
  90        9D-1       -0.00820  -0.00567   0.00180  -0.00639   0.00339
  91        9D+2        0.00070   0.00123  -0.00209   0.00063  -0.00210
  92        9D-2       -0.00297  -0.00266  -0.00043   0.00072  -0.00334
  93 5   C  1S         -0.25727   0.34454   0.00366  -0.04500   0.00117
  94        2S         -0.04010  -0.00700  -0.07592   0.03676  -0.05107
  95        3S         -0.04963   0.00855  -0.03175   0.06041  -0.01785
  96        4S         -0.01285   0.03420   0.00006  -0.01474   0.04404
  97        5PX         0.00910   0.02741   0.01594  -0.00451   0.01169
  98        5PY         0.05704  -0.01214   0.00502  -0.04020  -0.13308
  99        5PZ         0.08707  -0.08628   0.09357   0.00792  -0.03679
 100        6PX         0.01882   0.01334   0.01063  -0.05286   0.01765
 101        6PY         0.03135   0.01140  -0.02044  -0.00410  -0.00708
 102        6PZ         0.03853  -0.02897   0.04251   0.00153  -0.01403
 103        7PX        -0.00227  -0.00447  -0.00506   0.00538  -0.01295
 104        7PY         0.00572  -0.00269   0.01076   0.00695  -0.00007
 105        7PZ         0.00500   0.00270  -0.00298   0.00141  -0.00300
 106        8D 0        0.00122  -0.00257   0.00455  -0.00579   0.00143
 107        8D+1        0.00001  -0.00256   0.00073  -0.00251   0.00157
 108        8D-1        0.00026   0.00506   0.00331   0.00086  -0.00138
 109        8D+2        0.01378  -0.00636   0.01364  -0.01780   0.01189
 110        8D-2        0.01145   0.01625   0.00993  -0.01790   0.02380
 111        9D 0        0.00006  -0.00294   0.00161  -0.00146  -0.00202
 112        9D+1       -0.00651  -0.00091  -0.00740  -0.00007   0.00244
 113        9D-1        0.00352   0.00399   0.00121   0.00881   0.00067
 114        9D+2       -0.00130  -0.00453  -0.00092   0.01318  -0.00347
 115        9D-2       -0.00432  -0.00068   0.00249   0.00457   0.01018
 116 6   O  1S          0.35450  -0.01475  -0.39215   0.10676   0.39159
 117        2S         -0.00002  -0.02283  -0.03662   0.01974   0.01041
 118        3S         -0.02416  -0.03515  -0.01078   0.02171   0.01396
 119        4S         -0.01890  -0.02398   0.01274   0.01565   0.02375
 120        5PX         0.11052   0.06823   0.07306  -0.15658   0.28079
 121        5PY        -0.08864  -0.06770   0.00214   0.08700  -0.01320
 122        5PZ         0.06679  -0.03387   0.09609  -0.00159  -0.03373
 123        6PX         0.07703   0.04748   0.03972  -0.10194   0.17393
 124        6PY        -0.05110  -0.03739  -0.00541   0.05626  -0.02792
 125        6PZ         0.03905  -0.01999   0.05881  -0.00475  -0.02103
 126        7PX         0.03454   0.02233   0.00836  -0.04459   0.05628
 127        7PY        -0.01696  -0.01628  -0.00974   0.01883  -0.02532
 128        7PZ         0.00658   0.00044   0.01631  -0.00406  -0.00347
 129        8D 0       -0.00089   0.00023   0.00114   0.00002   0.00365
 130        8D+1       -0.00169   0.00106  -0.00201  -0.00007   0.00088
 131        8D-1       -0.00323   0.00259  -0.00397  -0.00009   0.00143
 132        8D+2       -0.00296  -0.00180   0.00002   0.00300  -0.00217
 133        8D-2       -0.00093  -0.00186  -0.00262   0.00246  -0.00881
 134        9D 0        0.00049   0.00060   0.00073   0.00032  -0.00163
 135        9D+1       -0.00153   0.00103  -0.00103  -0.00072  -0.00005
 136        9D-1       -0.00256   0.00259  -0.00306   0.00061   0.00139
 137        9D+2        0.00042   0.00078   0.00102  -0.00038  -0.00533
 138        9D-2       -0.00135  -0.00311  -0.00016   0.00019  -0.00030
 139 7   O  1S         -0.09484  -0.01353   0.18637  -0.06659  -0.12984
 140        2S          0.04808   0.01982  -0.05018   0.13797  -0.03391
 141        3S          0.08721   0.01778  -0.05715   0.14541  -0.04915
 142        4S          0.04575  -0.00632  -0.01156   0.02235  -0.04011
 143        5PX         0.02977  -0.13346   0.06205   0.02338  -0.16579
 144        5PY        -0.11067  -0.06711  -0.02213   0.04559  -0.01996
 145        5PZ         0.05844  -0.10923   0.03631  -0.00318  -0.01681
 146        6PX         0.00396  -0.09167   0.03801   0.02668  -0.10529
 147        6PY        -0.05195  -0.04930  -0.00475   0.01582  -0.02803
 148        6PZ         0.03679  -0.06820   0.02058   0.00062  -0.01002
 149        7PX        -0.00662  -0.03626   0.01799   0.01376  -0.03087
 150        7PY        -0.01273  -0.01869  -0.00343   0.00924  -0.02290
 151        7PZ         0.00500  -0.01803  -0.00192   0.00217   0.00001
 152        8D 0        0.00161  -0.00003   0.00132  -0.00104  -0.00205
 153        8D+1       -0.00136   0.00181  -0.00120  -0.00019   0.00044
 154        8D-1        0.00305  -0.00426   0.00274   0.00002  -0.00114
 155        8D+2        0.00211   0.00209   0.00040  -0.00255   0.00136
 156        8D-2        0.00236  -0.00198   0.00311  -0.00161  -0.00456
 157        9D 0       -0.00131   0.00047  -0.00202   0.00243   0.00167
 158        9D+1       -0.00223   0.00143  -0.00294   0.00060   0.00107
 159        9D-1        0.00308  -0.00332   0.00263   0.00079  -0.00144
 160        9D+2       -0.00096   0.00474  -0.00055   0.00163   0.00647
 161        9D-2       -0.00290   0.00022  -0.00014   0.00293  -0.00075
                          16        17        18        19        20
     Eigenvalues --     2.00000   2.00000   2.00000   2.00000   2.00000
   1 1   C  1S         -0.21584   0.33678  -0.20417  -0.45298   0.06509
   2        2S          0.01869  -0.00173   0.02381   0.03002   0.03581
   3        3S          0.07492  -0.02289  -0.03829   0.02682  -0.02506
   4        4S         -0.00098  -0.02628   0.03889   0.00286   0.01782
   5        5PX        -0.09068  -0.08718   0.05230  -0.02649  -0.19419
   6        5PY         0.04377   0.01864   0.06410  -0.08277  -0.06213
   7        5PZ         0.24645   0.09825  -0.12024   0.05877  -0.11252
   8        6PX         0.03390  -0.01247  -0.06176   0.03311  -0.01305
   9        6PY        -0.03312   0.03890   0.01966   0.03211   0.01096
  10        6PZ         0.05629   0.03185  -0.01516  -0.01409  -0.02359
  11        7PX        -0.00282  -0.00591   0.00598   0.00139  -0.00724
  12        7PY         0.01131  -0.00696  -0.00930  -0.00894  -0.00581
  13        7PZ         0.01108  -0.00502  -0.00240   0.00080  -0.00879
  14        8D 0       -0.01586   0.00830   0.01073   0.01879   0.01054
  15        8D+1       -0.03193  -0.01052   0.01121  -0.01655   0.00727
  16        8D-1       -0.02499   0.01075   0.01500  -0.00819   0.02113
  17        8D+2       -0.00943   0.00692   0.00387   0.00630  -0.00242
  18        8D-2       -0.00950  -0.00026  -0.00001   0.01409  -0.01232
  19        9D 0        0.00031  -0.01092  -0.00239  -0.02058  -0.02060
  20        9D+1        0.01112   0.00340  -0.00872   0.01021  -0.00348
  21        9D-1        0.01106  -0.00315  -0.00945   0.00892  -0.00764
  22        9D+2        0.01721  -0.00350  -0.02403   0.00024   0.00150
  23        9D-2        0.00047  -0.00771  -0.01639  -0.00931   0.00560
  24 2   F  1S          0.01589  -0.05968  -0.03379  -0.25596   0.03460
  25        2S         -0.07205   0.12420   0.03644  -0.03196  -0.02922
  26        3S         -0.05801   0.15665   0.03582  -0.02074  -0.04469
  27        4S          0.01096   0.05494  -0.00051   0.00205  -0.01550
  28        5PX        -0.11120  -0.09585   0.03481   0.06208   0.23725
  29        5PY        -0.23788  -0.04913   0.19454   0.05461   0.04885
  30        5PZ        -0.11852   0.00025  -0.00927  -0.02880   0.17624
  31        6PX        -0.05960  -0.05540   0.01715   0.03997   0.14535
  32        6PY        -0.13626  -0.02561   0.11968   0.03714   0.01940
  33        6PZ        -0.05741   0.00957  -0.01285  -0.01634   0.09384
  34        7PX        -0.00298  -0.00141  -0.00794   0.01190   0.03564
  35        7PY        -0.02397   0.00614   0.02569   0.01397  -0.00345
  36        7PZ        -0.01475   0.01426  -0.00057  -0.00933   0.00913
  37        8D 0        0.00065   0.00096  -0.00208   0.00055   0.00262
  38        8D+1       -0.00362  -0.00129   0.00136   0.00073   0.00395
  39        8D-1       -0.00465  -0.00009   0.00284   0.00034   0.00467
  40        8D+2        0.00104  -0.00015  -0.00111   0.00037  -0.00032
  41        8D-2       -0.00363  -0.00125   0.00231   0.00054   0.00228
  42        9D 0        0.00384   0.00348  -0.00421   0.00050   0.00097
  43        9D+1        0.00012  -0.00280  -0.00001   0.00090   0.00157
  44        9D-1       -0.00047   0.00234   0.00339   0.00174  -0.00119
  45        9D+2        0.00091  -0.00012  -0.00197  -0.00056   0.00114
  46        9D-2       -0.00236  -0.00211   0.00281   0.00272  -0.00042
  47 3   F  1S         -0.00590   0.06800  -0.06440  -0.38178   0.07546
  48        2S         -0.14326   0.05225  -0.06931   0.21118   0.02979
  49        3S         -0.19179   0.04372  -0.05858   0.24952   0.04233
  50        4S         -0.05302   0.00956  -0.00116   0.05618   0.02128
  51        5PX        -0.00408  -0.07574  -0.06708  -0.06505   0.00691
  52        5PY         0.12135   0.27414   0.16195   0.10497   0.02220
  53        5PZ        -0.31237   0.04469   0.18725  -0.11863   0.06079
  54        6PX        -0.01721  -0.05105  -0.03731  -0.04497   0.00990
  55        6PY         0.06053   0.17018   0.11193   0.06601   0.01936
  56        6PZ        -0.17144   0.03590   0.10889  -0.07359   0.03504
  57        7PX        -0.01344  -0.00832  -0.00982  -0.00913   0.01644
  58        7PY        -0.00270   0.03708   0.03226   0.01974   0.00678
  59        7PZ        -0.02632   0.00940   0.02073  -0.02100   0.01500
  60        8D 0        0.00355  -0.00050  -0.00382   0.00314   0.00124
  61        8D+1       -0.00244   0.00060   0.00249  -0.00212   0.00079
  62        8D-1       -0.00531  -0.00420   0.00096  -0.00382  -0.00106
  63        8D+2       -0.00149  -0.00268  -0.00078  -0.00076  -0.00098
  64        8D-2        0.00140   0.00125  -0.00015   0.00120  -0.00056
  65        9D 0        0.00028  -0.00473  -0.00344   0.00396   0.00177
  66        9D+1        0.00310   0.00444   0.00050   0.00051  -0.00009
  67        9D-1        0.00006  -0.00356  -0.00468  -0.00408  -0.00073
  68        9D+2       -0.00169  -0.00415  -0.00271  -0.00207  -0.00174
  69        9D-2       -0.00190   0.00106   0.00243   0.00027  -0.00217
  70 4   F  1S         -0.02797   0.26751   0.34935   0.13965  -0.18169
  71        2S          0.09362  -0.12264  -0.11260  -0.14168  -0.04275
  72        3S          0.10424  -0.15874  -0.15447  -0.15998  -0.04623
  73        4S          0.03146  -0.04800  -0.06508  -0.03865  -0.00467
  74        5PX         0.05574  -0.03249   0.19383  -0.01140  -0.25622
  75        5PY        -0.10275  -0.05894   0.03390   0.05990  -0.20949
  76        5PZ         0.04629   0.16261  -0.04552   0.00483   0.05496
  77        6PX         0.03264  -0.02516   0.12097  -0.00544  -0.16685
  78        6PY        -0.05787  -0.02796   0.03261   0.03148  -0.13164
  79        6PZ         0.02315   0.10102  -0.02814   0.00275   0.03717
  80        7PX         0.01674  -0.00338   0.02083  -0.00201  -0.03013
  81        7PY        -0.01554   0.00994   0.02885   0.01809  -0.02246
  82        7PZ        -0.00785   0.01681  -0.00174  -0.00377   0.01290
  83        8D 0       -0.00193   0.00030  -0.00012   0.00128  -0.00097
  84        8D+1        0.00117   0.00131  -0.00060   0.00008  -0.00025
  85        8D-1       -0.00370  -0.00347   0.00161  -0.00077   0.00003
  86        8D+2       -0.00273  -0.00150   0.00124   0.00090  -0.00566
  87        8D-2       -0.00229   0.00108  -0.00236   0.00184   0.00242
  88        9D 0        0.00002   0.00230   0.00216  -0.00034  -0.00054
  89        9D+1        0.00101   0.00126  -0.00114  -0.00076  -0.00139
  90        9D-1       -0.00206  -0.00454   0.00237  -0.00058  -0.00092
  91        9D+2       -0.00327  -0.00112   0.00366  -0.00120  -0.01002
  92        9D-2        0.00012   0.00379  -0.00628  -0.00093   0.00776
  93 5   C  1S         -0.04225   0.13133  -0.10923  -0.03555   0.05190
  94        2S         -0.05603  -0.05020   0.12330  -0.06437  -0.07581
  95        3S         -0.13403   0.02642   0.11490  -0.05949  -0.13075
  96        4S         -0.00652   0.04673  -0.03757  -0.00129  -0.04848
  97        5PX         0.05156   0.02949   0.06527   0.00363   0.16753
  98        5PY        -0.03681  -0.01023   0.02420  -0.03694  -0.08115
  99        5PZ         0.00484   0.02824  -0.04404  -0.01798  -0.01990
 100        6PX         0.05361   0.02772  -0.07899   0.02299   0.02825
 101        6PY         0.00201  -0.01881   0.01286  -0.02039  -0.03859
 102        6PZ        -0.00764   0.00743  -0.01315  -0.01147  -0.00613
 103        7PX        -0.00213  -0.00296   0.00628  -0.00572   0.01197
 104        7PY        -0.00649   0.00028   0.00610   0.00022   0.00480
 105        7PZ        -0.00108   0.00294  -0.00109   0.00138   0.00219
 106        8D 0        0.00012   0.00767  -0.00893   0.00301   0.00004
 107        8D+1       -0.00679  -0.00228   0.00230  -0.00187   0.00295
 108        8D-1       -0.00058   0.00507  -0.00343  -0.00047   0.00075
 109        8D+2        0.00316   0.00903  -0.00051   0.01288   0.00579
 110        8D-2        0.01430   0.00972   0.01885  -0.00116  -0.00288
 111        9D 0        0.00407  -0.00089   0.00469   0.00271   0.01154
 112        9D+1        0.00230  -0.00001   0.00054   0.00224   0.00104
 113        9D-1       -0.00081   0.00660  -0.00010  -0.00297   0.00187
 114        9D+2       -0.00779  -0.00614   0.04146  -0.00132   0.02219
 115        9D-2       -0.00133   0.00263  -0.00617   0.00744   0.00649
 116 6   O  1S         -0.22348  -0.08892  -0.28708   0.39816  -0.25057
 117        2S          0.06953  -0.12665   0.07142   0.04409   0.12567
 118        3S          0.10812  -0.14064   0.07776   0.05212   0.19537
 119        4S          0.02475  -0.02632   0.00513   0.03646   0.08052
 120        5PX         0.19223   0.07399   0.15105   0.06836   0.16763
 121        5PY        -0.02486  -0.06280  -0.18988   0.08032   0.05202
 122        5PZ        -0.02018   0.04660  -0.05138  -0.01914  -0.00262
 123        6PX         0.11890   0.04734   0.11400   0.03405   0.09350
 124        6PY        -0.03013  -0.04107  -0.10031   0.04028   0.01936
 125        6PZ        -0.01370   0.02778  -0.03254  -0.01052  -0.00100
 126        7PX         0.04364   0.01256   0.04262   0.00426   0.00528
 127        7PY        -0.01619  -0.01422  -0.03077   0.00422   0.00004
 128        7PZ        -0.00789   0.00546  -0.00669  -0.00392   0.00105
 129        8D 0        0.00137   0.00077  -0.00341   0.00199   0.00185
 130        8D+1       -0.00001  -0.00088   0.00111   0.00031   0.00028
 131        8D-1        0.00046  -0.00151   0.00195   0.00082   0.00042
 132        8D+2       -0.00310  -0.00106  -0.00808   0.00176  -0.00376
 133        8D-2       -0.00483  -0.00294   0.00065  -0.00330  -0.00587
 134        9D 0       -0.00037   0.00054   0.00327   0.00050   0.00347
 135        9D+1        0.00150  -0.00050   0.00016   0.00082  -0.00070
 136        9D-1        0.00009  -0.00088   0.00171   0.00018   0.00046
 137        9D+2       -0.00349  -0.00161  -0.00290  -0.00054  -0.00535
 138        9D-2       -0.00108  -0.00067  -0.00534   0.00097  -0.00334
 139 7   O  1S          0.06143   0.19308   0.18530   0.15858  -0.03786
 140        2S          0.07940  -0.20678   0.10600  -0.05865   0.08308
 141        3S          0.09705  -0.25398   0.11026  -0.07085   0.09475
 142        4S          0.01965  -0.07090   0.02909  -0.02738   0.00776
 143        5PX        -0.06786  -0.06862  -0.07991   0.06593   0.11437
 144        5PY        -0.07969   0.03598  -0.02321   0.03781   0.07404
 145        5PZ         0.00447  -0.01342  -0.00740  -0.00671  -0.01341
 146        6PX        -0.05415  -0.04353  -0.05167   0.04812   0.07461
 147        6PY        -0.04966   0.01728  -0.03052   0.02520   0.03290
 148        6PZ         0.00426  -0.00793  -0.00390  -0.00407  -0.00850
 149        7PX        -0.02494  -0.01442  -0.02908   0.02432   0.02319
 150        7PY        -0.01908  -0.00511  -0.01959   0.00451   0.00166
 151        7PZ         0.00302  -0.00315   0.00258   0.00008  -0.00067
 152        8D 0       -0.00018   0.00010  -0.00225   0.00016  -0.00150
 153        8D+1       -0.00014  -0.00014   0.00041   0.00030   0.00037
 154        8D-1        0.00015   0.00031  -0.00111  -0.00051  -0.00068
 155        8D+2        0.00130   0.00108  -0.00204  -0.00081  -0.00573
 156        8D-2       -0.00109   0.00029  -0.00291   0.00170   0.00199
 157        9D 0        0.00073  -0.00028   0.00268   0.00063   0.00404
 158        9D+1       -0.00029   0.00051   0.00127   0.00043   0.00136
 159        9D-1        0.00112   0.00122  -0.00161  -0.00024  -0.00088
 160        9D+2        0.00320   0.00009  -0.00042  -0.00126   0.00278
 161        9D-2       -0.00014  -0.00015   0.00144   0.00097   0.00638
                          21        22        23        24        25
     Eigenvalues --     2.00000   2.00000   2.00000   2.00000   2.00000
   1 1   C  1S          0.04759   0.33819  -0.32168   0.12320   0.04473
   2        2S         -0.06207  -0.05631  -0.03766   0.07475  -0.07954
   3        3S         -0.07647  -0.14465  -0.09056   0.03914  -0.13346
   4        4S         -0.03026   0.00477  -0.07655   0.03074  -0.04647
   5        5PX        -0.12911   0.01531   0.05216   0.15260   0.01018
   6        5PY         0.00690  -0.08994   0.01861   0.04209  -0.07622
   7        5PZ        -0.00679   0.14603  -0.02275   0.05543   0.05791
   8        6PX        -0.03393  -0.07736  -0.04840  -0.01600  -0.06910
   9        6PY        -0.00905   0.00238  -0.00606  -0.00785  -0.01485
  10        6PZ         0.00764  -0.00260  -0.00174   0.00317  -0.00623
  11        7PX        -0.00607  -0.00050  -0.01504   0.00098  -0.00648
  12        7PY         0.00276  -0.01297   0.01768   0.00650  -0.00713
  13        7PZ        -0.00244   0.00600  -0.00162  -0.00307  -0.00432
  14        8D 0        0.00120   0.02464  -0.01451   0.00686  -0.00262
  15        8D+1        0.00856  -0.02004   0.00266  -0.00796  -0.00886
  16        8D-1        0.00631  -0.02296   0.00311   0.00014  -0.00048
  17        8D+2        0.00541   0.00864  -0.00358  -0.01513   0.01951
  18        8D-2        0.01747   0.02032  -0.00906  -0.01424  -0.00788
  19        9D 0        0.00464  -0.00985   0.01094   0.01921  -0.00498
  20        9D+1       -0.00231   0.01318  -0.00056   0.00636   0.00805
  21        9D-1       -0.00239   0.01639  -0.00126   0.00501   0.00651
  22        9D+2        0.00330  -0.02935  -0.00867  -0.00880  -0.01703
  23        9D-2        0.00255  -0.01582  -0.00029   0.00980   0.00277
  24 2   F  1S         -0.03925   0.20168   0.11919   0.08762   0.00389
  25        2S         -0.01787  -0.04187   0.04046  -0.13904  -0.13002
  26        3S         -0.01556  -0.04319   0.04468  -0.15563  -0.13778
  27        4S         -0.00234  -0.00657   0.00655  -0.03841  -0.02598
  28        5PX        -0.22504  -0.04188  -0.00607   0.22035   0.03502
  29        5PY         0.10377   0.03305  -0.10111  -0.08961  -0.07429
  30        5PZ         0.16094  -0.13651  -0.01639  -0.08110  -0.01814
  31        6PX        -0.14873  -0.02275  -0.00040   0.14174   0.02691
  32        6PY         0.06478   0.02998  -0.06149  -0.05742  -0.04487
  33        6PZ         0.09850  -0.08084  -0.00490  -0.04905  -0.01102
  34        7PX        -0.02584  -0.00232  -0.00508   0.02362   0.00736
  35        7PY         0.00969   0.02015  -0.01683  -0.01862  -0.00605
  36        7PZ         0.02400  -0.01905  -0.00046  -0.01207  -0.00613
  37        8D 0        0.00241  -0.00134  -0.00029  -0.00286  -0.00052
  38        8D+1       -0.00220  -0.00211  -0.00002   0.00164  -0.00101
  39        8D-1        0.00216  -0.00298  -0.00144  -0.00315  -0.00249
  40        8D+2       -0.00184   0.00052   0.00092   0.00223   0.00132
  41        8D-2       -0.00114  -0.00117  -0.00051   0.00095  -0.00148
  42        9D 0        0.00478  -0.00205   0.00109  -0.00188   0.00002
  43        9D+1       -0.00917  -0.00125   0.00175   0.00655   0.00086
  44        9D-1        0.00362  -0.00041  -0.00104  -0.00198  -0.00355
  45        9D+2       -0.00674  -0.00090   0.00169   0.00422   0.00272
  46        9D-2       -0.00321  -0.00035   0.00092   0.00390  -0.00243
  47 3   F  1S         -0.02054  -0.01503  -0.00292   0.09119  -0.07527
  48        2S         -0.09887   0.20433   0.01287  -0.01445   0.06228
  49        3S         -0.10646   0.22044   0.02288  -0.02842   0.07256
  50        4S         -0.02451   0.03215   0.00586  -0.02175   0.01103
  51        5PX        -0.11646   0.05951  -0.03448   0.18858   0.00583
  52        5PY         0.11683   0.17160  -0.13727   0.06476   0.01569
  53        5PZ        -0.03649  -0.09272   0.04802   0.09232   0.02568
  54        6PX        -0.07782   0.03156  -0.01679   0.11759   0.00618
  55        6PY         0.07490   0.10561  -0.08274   0.03788   0.01076
  56        6PZ        -0.02002  -0.04546   0.02050   0.06250   0.01907
  57        7PX        -0.01165   0.00003  -0.00699   0.01463  -0.00010
  58        7PY         0.01200   0.03028  -0.02085  -0.00085   0.00415
  59        7PZ         0.00034  -0.01589   0.00388   0.01635   0.00489
  60        8D 0        0.00079   0.00142  -0.00078  -0.00304  -0.00026
  61        8D+1        0.00239  -0.00311   0.00089  -0.00271  -0.00014
  62        8D-1       -0.00083  -0.00341   0.00240  -0.00017  -0.00039
  63        8D+2       -0.00122  -0.00014   0.00084   0.00062   0.00002
  64        8D-2       -0.00053   0.00231  -0.00109   0.00225  -0.00007
  65        9D 0        0.00067  -0.00275   0.00176  -0.00480  -0.00210
  66        9D+1        0.00799   0.00113  -0.00187  -0.00614  -0.00075
  67        9D-1       -0.00274  -0.00166   0.00162  -0.00012   0.00211
  68        9D+2       -0.00571  -0.00129   0.00160   0.00165   0.00084
  69        9D-2        0.00028   0.00099   0.00010   0.00431  -0.00201
  70 4   F  1S         -0.02869  -0.31888  -0.39802   0.17345   0.39853
[...]
     21 -0.863925D-02  0.124086D-01 -0.465469D-01 -0.896117D-02  0.182331D-02
                6             7             8             9            10 
      6  0.141213D+00
      7  0.287448D-02  0.711545D-01
      8 -0.197454D-01  0.440335D-01  0.305945D+00
      9  0.734579D-02 -0.632643D-02 -0.323987D-01  0.767109D-01
     10  0.388875D-01  0.126795D-01 -0.285249D-02  0.789555D-02  0.707389D-01
     11 -0.208549D-01  0.293425D-02 -0.345134D-01  0.559893D-01 -0.656177D-02
     12 -0.641265D-01  0.354863D-02  0.449742D-01 -0.243757D-01  0.216850D-01
     13 -0.306751D-02  0.119833D-01  0.108065D-01 -0.186920D-02  0.114260D-01
     14 -0.239086D-02 -0.293943D-01 -0.223595D-01 -0.353956D-02  0.629250D-02
     15 -0.582259D-02  0.740831D-02  0.151867D-01  0.139105D-02 -0.189129D-01
     16  0.117789D-03 -0.103863D-01 -0.120661D-01 -0.366843D-02 -0.350272D-02
     17  0.355110D-04  0.173401D-03 -0.452648D-03 -0.201985D-02 -0.572210D-03
     18  0.353321D-02  0.177371D-02 -0.218911D-03  0.311809D-02 -0.229132D-02
     19 -0.126233D-02 -0.319327D-02 -0.358644D-02 -0.426868D-03 -0.943591D-02
     20  0.117746D-02  0.274397D-02  0.668901D-02 -0.257310D-02 -0.768906D-04
     21  0.742723D-02 -0.387980D-02 -0.694624D-02  0.371724D-02 -0.116515D-01
               11            12            13            14            15 
     11  0.860432D-01
     12 -0.569020D-01  0.313921D+00
     13 -0.441014D-02  0.212803D-01  0.484249D+00
     14  0.546967D-02  0.161560D-01  0.114293D+00  0.326566D+00
     15  0.274531D-02 -0.263483D-01 -0.115233D+00 -0.207053D+00  0.867661D+00
     16 -0.774655D-04 -0.414937D-02 -0.283106D+00 -0.120180D+00  0.188386D+00
     17  0.981097D-03 -0.425538D-02 -0.119997D+00 -0.145026D+00  0.120736D+00
     18 -0.363469D-02  0.108271D-01  0.187695D+00  0.120507D+00 -0.290747D+00
     19  0.383167D-03 -0.133636D-01 -0.106032D+00  0.734941D-02 -0.673536D-01
     20  0.760290D-03 -0.265932D-02  0.674338D-02 -0.971297D-01  0.940668D-01
     21 -0.208454D-02 -0.668833D-02 -0.650779D-01  0.948253D-01 -0.512655D+00
               16            17            18            19            20 
     16  0.310554D+00
     17  0.158324D+00  0.122779D+00
     18 -0.237773D+00 -0.167890D+00  0.358587D+00
     19  0.280014D-01 -0.108764D-01  0.426100D-01  0.942560D-01
     20 -0.748704D-02  0.133155D-01  0.407459D-01  0.368876D-02  0.662229D-01
     21  0.298625D-01  0.364955D-01 -0.731657D-01  0.683471D-01 -0.136522D+00
               21 
     21  0.627911D+00
 FormGI is forming the generalized inverse of G from B-inverse, IUseBI=4.
 Force constants in internal coordinates: 
                1             2             3             4             5 
      1  0.317770D+00
      2  0.537010D-01  0.317632D+00
      3  0.531795D-01  0.531742D-01  0.328028D+00
      4  0.579232D-02  0.579379D-02  0.305187D-02  0.185687D+00
      5  0.842990D-02  0.842946D-02  0.119245D-01  0.459858D-01  0.670709D+00
      6  0.982524D-02  0.982182D-02  0.856299D-02  0.457279D-01  0.842996D-01
      7  0.261515D-01  0.261508D-01  0.205535D-02 -0.461609D-02 -0.697634D-02
      8  0.308888D-01  0.121608D-02  0.329681D-01 -0.124175D-01 -0.570797D-02
      9 -0.423436D-02 -0.206316D-01 -0.255255D-01  0.526986D-02  0.128451D-01
     10  0.121549D-02  0.308787D-01  0.329584D-01 -0.124078D-01 -0.570638D-02
     11 -0.206310D-01 -0.422939D-02 -0.255161D-01  0.525690D-02  0.128281D-01
     12 -0.264629D-01 -0.264545D-01 -0.101216D-01  0.156642D-01 -0.915849D-02
     13  0.146587D-01  0.146415D-01 -0.174356D-01  0.280844D-01  0.218838D-01
     14 -0.584541D-02 -0.582906D-02  0.255550D-01  0.166330D-01 -0.423704D-01
     15 -0.881284D-02 -0.881295D-02 -0.811939D-02 -0.447174D-01  0.204866D-01
     16 -0.224873D-02 -0.140677D-01  0.164158D-01 -0.690812D-03 -0.443936D-02
     17  0.500627D-02 -0.213270D-01  0.164197D-01 -0.695058D-03 -0.443758D-02
     18  0.140687D-01  0.225314D-02 -0.164203D-01  0.694905D-03  0.444143D-02
     19  0.213237D-01 -0.500622D-02 -0.164164D-01  0.690659D-03  0.444321D-02
     20 -0.202948D-01  0.202989D-01 -0.395824D-05  0.201042D-05 -0.415500D-05
     21 -0.130398D-01  0.130395D-01  0.000000D+00 -0.223489D-05 -0.237264D-05
                6             7             8             9            10 
      6  0.666883D+00
      7 -0.467176D-02  0.128329D+00
      8 -0.667080D-02  0.293813D-01  0.137704D+00
      9 -0.346962D-02 -0.776258D-01 -0.840258D-01  0.151631D+00
     10 -0.666975D-02  0.293785D-01  0.302851D-01 -0.919683D-02  0.137680D+00
     11 -0.345986D-02 -0.776298D-01 -0.919754D-02  0.789936D-02 -0.840148D-01
     12  0.226903D-01 -0.926322D-02 -0.827527D-01 -0.772603D-02 -0.827364D-01
     13 -0.424266D-01 -0.726853D-02 -0.481148D-02  0.683830D-02 -0.480660D-02
     14  0.242855D-01  0.116084D-02 -0.475225D-02 -0.225502D-02 -0.475159D-02
     15  0.181411D-01  0.610769D-02  0.956365D-02 -0.458289D-02  0.955827D-02
     16  0.540742D-02 -0.284873D-01  0.288460D-01 -0.807486D-02 -0.180621D-02
     17  0.540935D-02 -0.284851D-01  0.275396D-01 -0.193942D-02 -0.498295D-03
     18 -0.541152D-02  0.284847D-01  0.180365D-02  0.306507D-02 -0.288494D-01
     19 -0.540959D-02  0.284869D-01  0.497251D-03  0.920050D-02 -0.275415D-01
     20  0.000000D+00  0.000000D+00 -0.270493D-01 -0.881838D-02  0.270513D-01
     21  0.241537D-05  0.308113D-05 -0.283557D-01 -0.268295D-02  0.283592D-01
               11            12            13            14            15 
     11  0.151604D+00
     12 -0.770323D-02  0.170306D+00
     13  0.682766D-02  0.131993D-02  0.158525D+00
     14 -0.225551D-02  0.119002D-01 -0.638678D-01  0.153286D+00
     15 -0.457254D-02 -0.132201D-01 -0.946567D-01 -0.894180D-01  0.184075D+00
     16 -0.305421D-02  0.113115D-01 -0.772233D-04  0.818672D-03 -0.743078D-03
     17 -0.919581D-02  0.113140D-01 -0.753699D-04  0.819072D-03 -0.741795D-03
     18  0.807241D-02 -0.113147D-01  0.824123D-04 -0.824905D-03  0.740862D-03
     19  0.193082D-02 -0.113121D-01  0.842657D-04 -0.824505D-03  0.742146D-03
     20  0.881486D-02  0.399245D-05  0.128778D-05 -0.378370D-05  0.000000D+00
     21  0.267327D-02  0.652605D-05  0.314116D-05 -0.338374D-05  0.195519D-05
               16            17            18            19            20 
     16  0.405150D-01
     17  0.148868D-01  0.448736D-01
     18 -0.382227D-02 -0.294524D-01  0.405179D-01
     19 -0.294506D-01  0.534400D-03  0.148877D-01  0.448727D-01
     20 -0.138192D-03 -0.288261D-01 -0.138913D-03 -0.288269D-01  0.428476D-01
     21 -0.257665D-01  0.116067D-02 -0.257691D-01  0.115810D-02  0.141597D-01
               21 
     21  0.410868D-01
 Leave Link  716 at Sat Aug  1 13:34:46 2020, MaxMem=   524288000 cpu:               0.2 elap:               0.0
 (Enter /home/ubuntu/g16/l103.exe)

 GradGradGradGradGradGradGradGradGradGradGradGradGradGradGradGradGradGrad
 Berny optimization.
 Red2BG is reusing G-inverse.
 Internal  Forces:  Max     0.000037423 RMS     0.000009736
 Search for a local minimum.
 Step number   1 out of a maximum of    2
 All quantities printed in internal units (Hartrees-Bohrs-Radians)
 Second derivative matrix not updated -- analytic derivatives used.
 ITU=  0
     Eigenvalues ---    0.00021   0.08109   0.10440   0.12560   0.14990
     Eigenvalues ---    0.19415   0.20907   0.22039   0.26183   0.28640
     Eigenvalues ---    0.30181   0.33734   0.47963   0.59861   0.76414
 Angle between quadratic step and forces=  81.69 degrees.
 Linear search not attempted -- first point.
 Iteration  1 RMS(Cart)=  0.00025362 RMS(Int)=  0.00000003
 Iteration  2 RMS(Cart)=  0.00000003 RMS(Int)=  0.00000000
 ITry= 1 IFail=0 DXMaxC= 6.21D-04 DCOld= 1.00D+10 DXMaxT= 3.00D-01 DXLimC= 3.00D+00 Rises=F
 Variable       Old X    -DE/DX   Delta X   Delta X   Delta X     New X
                                 (Linear)    (Quad)   (Total)
    R1        2.59297  -0.00001   0.00000  -0.00001  -0.00001   2.59296
    R2        2.59311  -0.00004   0.00000  -0.00015  -0.00015   2.59296
    R3        2.57812  -0.00000   0.00000   0.00002   0.00002   2.57813
    R4        2.99548  -0.00000   0.00000  -0.00001  -0.00001   2.99548
    R5        2.35550   0.00000   0.00000  -0.00000  -0.00000   2.35550
    R6        2.35829   0.00001   0.00000   0.00003   0.00003   2.35832
    A1        1.84551   0.00001   0.00000   0.00005   0.00005   1.84557
    A2        1.83972   0.00001   0.00000   0.00000   0.00000   1.83973
    A3        1.95958  -0.00001   0.00000  -0.00006  -0.00006   1.95952
    A4        1.83970   0.00001   0.00000   0.00003   0.00003   1.83973
    A5        1.95947  -0.00000   0.00000   0.00004   0.00004   1.95952
    A6        2.00698  -0.00001   0.00000  -0.00005  -0.00005   2.00693
    A7        2.00559  -0.00000   0.00000   0.00000   0.00000   2.00560
    A8        1.96085   0.00000   0.00000   0.00000   0.00000   1.96085
    A9        2.31674   0.00000   0.00000  -0.00001  -0.00001   2.31673
    D1        2.10380  -0.00000   0.00000  -0.00054  -0.00054   2.10326
    D2       -1.03784  -0.00000   0.00000  -0.00049  -0.00049  -1.03833
    D3       -2.10276   0.00000   0.00000  -0.00048  -0.00048  -2.10324
    D4        1.03878   0.00000   0.00000  -0.00043  -0.00043   1.03835
    D5        0.00047  -0.00000   0.00000  -0.00046  -0.00046   0.00001
    D6       -3.14118   0.00000   0.00000  -0.00040  -0.00040  -3.14158
         Item               Value     Threshold  Converged?
 Maximum Force            0.000037     0.000450     YES
 RMS     Force            0.000010     0.000300     YES
 Maximum Displacement     0.000621     0.001800     YES
 RMS     Displacement     0.000254     0.001200     YES
 Predicted change in Energy=-3.754197D-09
 Optimization completed.
    -- Stationary point found.
                           ----------------------------
                           !   Optimized Parameters   !
                           ! (Angstroms and Degrees)  !
 --------------------------                            --------------------------
 ! Name  Definition              Value          Derivative Info.                !
 --------------------------------------------------------------------------------
 ! R1    R(1,2)                  1.3721         -DE/DX =    0.0                 !
 ! R2    R(1,3)                  1.3722         -DE/DX =    0.0                 !
 ! R3    R(1,4)                  1.3643         -DE/DX =    0.0                 !
 ! R4    R(1,5)                  1.5851         -DE/DX =    0.0                 !
 ! R5    R(5,6)                  1.2465         -DE/DX =    0.0                 !
 ! R6    R(5,7)                  1.248          -DE/DX =    0.0                 !
 ! A1    A(2,1,3)              105.7401         -DE/DX =    0.0                 !
 ! A2    A(2,1,4)              105.4083         -DE/DX =    0.0                 !
 ! A3    A(2,1,5)              112.2756         -DE/DX =    0.0                 !
 ! A4    A(3,1,4)              105.4071         -DE/DX =    0.0                 !
 ! A5    A(3,1,5)              112.2696         -DE/DX =    0.0                 !
 ! A6    A(4,1,5)              114.9914         -DE/DX =    0.0                 !
 ! A7    A(1,5,6)              114.912          -DE/DX =    0.0                 !
 ! A8    A(1,5,7)              112.3486         -DE/DX =    0.0                 !
 ! A9    A(6,5,7)              132.7394         -DE/DX =    0.0                 !
 ! D1    D(2,1,5,6)            120.5391         -DE/DX =    0.0                 !
 ! D2    D(2,1,5,7)            -59.4641         -DE/DX =    0.0                 !
 ! D3    D(3,1,5,6)           -120.4793         -DE/DX =    0.0                 !
 ! D4    D(3,1,5,7)             59.5175         -DE/DX =    0.0                 !
 ! D5    D(4,1,5,6)              0.0268         -DE/DX =    0.0                 !
 ! D6    D(4,1,5,7)           -179.9764         -DE/DX =    0.0                 !
 --------------------------------------------------------------------------------
 GradGradGradGradGradGradGradGradGradGradGradGradGradGradGradGradGradGrad

 Leave Link  103 at Sat Aug  1 13:34:46 2020, MaxMem=   524288000 cpu:               0.1 elap:               0.0
 (Enter /home/ubuntu/g16/l9999.exe)

 ----------------------------------------------------------------------

 Electric dipole moment (input orientation):
 (Debye = 10**-18 statcoulomb cm , SI units = C m)
                  (au)            (Debye)         (10**-30 SI)
   Tot        0.184868D+01      0.469887D+01      0.156737D+02
   x          0.168403D+01      0.428039D+01      0.142778D+02
   y          0.386738D+00      0.982991D+00      0.327890D+01
   z          0.657317D+00      0.167073D+01      0.557296D+01

 Dipole polarizability, Alpha (input orientation).
 (esu units = cm**3 , SI units = C**2 m**2 J**-1)
 Alpha(0;0):
               (au)            (10**-24 esu)      (10**-40 SI)
   iso        0.431561D+02      0.639507D+01      0.711547D+01
   aniso      0.130618D+02      0.193555D+01      0.215359D+01
   xx         0.451280D+02      0.668728D+01      0.744060D+01
   yx         0.349456D+01      0.517840D+00      0.576175D+00
   yy         0.367063D+02      0.543931D+01      0.605205D+01
   zx         0.335016D-01      0.496442D-02      0.552367D-02
   zy        -0.344778D+01     -0.510909D+00     -0.568462D+00
   zz         0.476339D+02      0.705862D+01      0.785377D+01

 ----------------------------------------------------------------------

 Dipole orientation:
     6          3.68290684         -0.10061657         12.38966591
     9          5.74876434         -1.34017694         13.34841592
     9          3.79938779          2.30614240         13.34787764
     9          1.64153660         -1.19178659         13.52493613
     6          3.63071028         -0.12880324          9.39477218
     8          1.72929172         -1.14422168          8.44507698
     8          5.53868160          0.89005335          8.45503569

 Electric dipole moment (dipole orientation):
 (Debye = 10**-18 statcoulomb cm , SI units = C m)
                  (au)            (Debye)         (10**-30 SI)
   Tot        0.184868D+01      0.469887D+01      0.156737D+02
   x          0.000000D+00      0.000000D+00      0.000000D+00
   y          0.000000D+00      0.000000D+00      0.000000D+00
   z          0.184868D+01      0.469887D+01      0.156737D+02

 Dipole polarizability, Alpha (dipole orientation).
 (esu units = cm**3 , SI units = C**2 m**2 J**-1)
 Alpha(0;0):
               (au)            (10**-24 esu)      (10**-40 SI)
   iso        0.431561D+02      0.639507D+01      0.711547D+01
   aniso      0.130618D+02      0.193555D+01      0.215359D+01
   xx         0.457532D+02      0.677992D+01      0.754368D+01
   yx         0.594341D+01      0.880723D+00      0.979937D+00
   yy         0.377981D+02      0.560110D+01      0.623206D+01
   zx         0.782284D-01      0.115923D-01      0.128981D-01
   zy         0.429874D-01      0.637008D-02      0.708767D-02
   zz         0.459169D+02      0.680418D+01      0.757067D+01

 ----------------------------------------------------------------------
 1\1\GINC-LC06-1-2\Freq\UB3LYP\Aug-CC-pVDZ\C2F3O2(1-)\UBUNTU\01-Aug-202
 0\0\\#P Geom=AllCheck Guess=TCheck SCRF=Check GenChk UB3LYP/Aug-CC-pVD
 Z Freq\\CF3COO-_UB3LYP-aug-cc-pVDZ\\-1,1\C,6.7357875349,1.0460622604,0
 .5669696671\F,7.7141602123,0.3637439888,-0.1112592543\F,7.0425543488,2
 .3759578417,0.4246777269\F,6.945249801,0.7648215749,1.8854119404\C,5.2
 83485923,0.7039686934,0.0317481988\O,4.5109807401,0.2202975047,0.88204
 51115\O,5.14628144,0.9797481362,-1.1775933904\\Version=ES64L-G16RevA.0
 3\State=1-A\HF=-526.3510778\S2=0.\S2-1=0.\S2A=0.\RMSD=4.361e-09\RMSF=1
 .413e-05\ZeroPoint=0.0251026\Thermal=0.0312422\Dipole=1.6840341,0.3867
 384,0.6573165\DipoleDeriv=1.2179736,-0.1361252,-0.101096,-0.1409512,1.
 6583058,0.0042398,-0.0829156,0.0102996,1.5636102,-0.8272749,0.2664877,
 0.2506998,0.2287635,-0.4790469,-0.1817207,0.1896508,-0.1849137,-0.4510
 813,-0.4582449,-0.2481439,-0.0112633,-0.1870009,-1.00399,0.0525591,-0.
 0382624,0.0263632,-0.2952172,-0.4315097,0.0284196,-0.2699527,0.0032659
 ,-0.3277957,0.1036279,-0.1754592,0.1351734,-1.0285419,1.2139951,0.4177
 828,-0.124635,0.4252164,0.3409125,-0.520497,-0.1526154,-0.5298257,1.86
 22089,-1.0195998,-0.3134566,0.4879084,-0.2587488,-0.6427968,0.3302261,
 0.2822181,0.2616561,-1.0988546,-0.6953394,-0.0149644,-0.2316613,-0.070
 545,-0.5455888,0.2115647,-0.0226163,0.2812471,-1.5521241\Polar=45.1279
 756,3.4945601,36.7062836,0.0335016,-3.4477819,47.6338977\Quadrupole=-3
 .4429465,4.5112614,-1.0683149,-2.6458116,-1.5641405,1.2873612\PG=C01 [
 X(C2F3O2)]\NImag=0\\0.50773986,0.03057987,0.40600093,0.02732434,-0.006
 47241,0.45286662,-0.17970929,0.04913390,0.03874051,0.17950076,0.049300
 55,-0.08810689,-0.02157499,-0.08938585,0.13323826,0.05241494,-0.023853
 57,-0.08957007,-0.08996484,0.06563180,0.14121297,-0.09609764,-0.055457
 42,-0.00539889,0.01385981,0.03496655,0.00287448,0.07115455,-0.06141133
 ,-0.19325935,-0.00085156,0.02507637,-0.06204949,-0.01974541,0.04403352
 ,0.30594534,0.00268607,0.00868403,-0.06790736,0.00170932,-0.02414204,0
 .00734579,-0.00632643,-0.03239875,0.07671094,-0.08870756,0.00180289,-0
 .03561228,0.00680183,0.00196797,0.03888745,0.01267949,-0.00285249,0.00
 789555,0.07073885,0.00723985,-0.06984527,0.02474159,0.00049212,0.01110
 435,-0.02085494,0.00293425,-0.03451337,0.05598927,-0.00656177,0.086043
 22,-0.05605223,0.01792502,-0.20320938,0.02705138,-0.01523856,-0.064126
 54,0.00354863,0.04497422,-0.02437575,0.02168496,-0.05690201,0.31392114
 ,-0.11247239,-0.00676384,-0.02372798,-0.00604842,-0.00067256,-0.003067
 51,0.01198330,0.01080650,-0.00186920,0.01142601,-0.00441014,0.02128028
 ,0.48424868,-0.00606371,-0.07041237,-0.01850457,0.02770281,0.00289200,
 -0.00239086,-0.02939426,-0.02235950,-0.00353956,0.00629250,0.00546967,
 0.01615603,0.11429328,0.32656576,-0.02633042,-0.01937550,-0.03347982,0
 .03203555,-0.00630628,-0.00582259,0.00740831,0.01518666,0.00139105,-0.
 01891286,0.00274531,-0.02634828,-0.11523272,-0.20705292,0.86766110,-0.
 02876104,-0.02257446,0.02722494,-0.01279994,0.00406090,0.00011779,-0.0
 1038625,-0.01206613,-0.00366843,-0.00350272,-0.00007747,-0.00414937,-0
 .28310564,-0.12018005,0.18838572,0.31055416,-0.01762771,0.00687506,0.0
 1689778,-0.00942469,0.00152764,0.00003551,0.00017340,-0.00045265,-0.00
 201985,-0.00057221,0.00098110,-0.00425538,-0.11999662,-0.14502585,0.12
 073596,0.15832423,0.12277919,0.00859654,0.01068386,-0.01215306,-0.0006
 1075,-0.00019324,0.00353321,0.00177371,-0.00021891,0.00311809,-0.00229
 132,-0.00363469,0.01082713,0.18769499,0.12050659,-0.29074654,-0.237773
 17,-0.16788956,0.35858689,-0.00199194,0.00327905,-0.02855064,-0.001604
 75,-0.00023755,-0.00126233,-0.00319327,-0.00358644,-0.00042687,-0.0094
 3591,0.00038317,-0.01336364,-0.10603153,0.00734941,-0.06735358,0.02800
 143,-0.01087639,0.04261000,0.09425598,-0.00201752,0.00874788,0.0057641
 6,-0.00359466,0.00139413,0.00117746,0.00274397,0.00668901,-0.00257310,
 -0.00007689,0.00076029,-0.00265932,0.00674338,-0.09712971,0.09406677,-
 0.00748704,0.01331552,0.04074594,0.00368876,0.06622288,-0.00863925,0.0
 1240856,-0.04654693,-0.00896117,0.00182331,0.00742723,-0.00387980,-0.0
 0694624,0.00371724,-0.01165150,-0.00208454,-0.00668833,-0.06507786,0.0
 9482529,-0.51265493,0.02986253,0.03649554,-0.07316571,0.06834705,-0.13
 652191,0.62791142\\-0.00002826,-0.00003712,0.00000794,0.00001037,0.000
 00030,-0.00000340,0.00001360,0.00003499,-0.00000484,0.00000593,0.00000
 201,0.00000114,-0.00000115,0.00000085,-0.00001288,-0.00000139,0.000001
 00,-0.00000154,0.00000089,-0.00000204,0.00001359\\\@


 ART, GLORY, FREEDOM FAIL, BUT NATURE STILL IS FAIR.

                                           -- BYRON
 Job cpu time:       0 days  0 hours 17 minutes  5.1 seconds.
 Elapsed time:       0 days  0 hours  2 minutes 27.1 seconds.
 File lengths (MBytes):  RWF=     50 Int=      0 D2E=      0 Chk=      4 Scr=      1
 Normal termination of Gaussian 16 at Sat Aug  1 13:34:46 2020.
