 Entering Gaussian System, Link 0=/home/ubuntu/g16/g16
 Input=Cl-_UB3LYP-aug-cc-pVDZ-Opt.gjf
 Output=Cl-_UB3LYP-aug-cc-pVDZ-Opt.log
 Initial command:
 /home/ubuntu/g16/l1.exe "/home/ubuntu/g16/Gau-32076.inp" -scrdir="/home/ubuntu/g16/"
 Entering Link 1 = /home/ubuntu/g16/l1.exe PID=     32078.
  
 Copyright (c) 1988,1990,1992,1993,1995,1998,2003,2009,2016,
            Gaussian, Inc.  All Rights Reserved.
  
 This is part of the Gaussian(R) 16 program.  It is based on
 the Gaussian(R) 09 system (copyright 2009, Gaussian, Inc.),
 the Gaussian(R) 03 system (copyright 2003, Gaussian, Inc.),
 the Gaussian(R) 98 system (copyright 1998, Gaussian, Inc.),
 the Gaussian(R) 94 system (copyright 1995, Gaussian, Inc.),
 the Gaussian 92(TM) system (copyright 1992, Gaussian, Inc.),
 the Gaussian 90(TM) system (copyright 1990, Gaussian, Inc.),
 the Gaussian 88(TM) system (copyright 1988, Gaussian, Inc.),
 the Gaussian 86(TM) system (copyright 1986, Carnegie Mellon
 University), and the Gaussian 82(TM) system (copyright 1983,
 Carnegie Mellon University). Gaussian is a federally registered
 trademark of Gaussian, Inc.
  
 This software contains proprietary and confidential information,
 including trade secrets, belonging to Gaussian, Inc.
  
 This software is provided under written license and may be
 used, copied, transmitted, or stored only in accord with that
 written license.
  
 The following legend is applicable only to US Government
 contracts under FAR:
  
                    RESTRICTED RIGHTS LEGEND
  
 Use, reproduction and disclosure by the US Government is
 subject to restrictions as set forth in subparagraphs (a)
 and (c) of the Commercial Computer Software - Restricted
 Rights clause in FAR 52.227-19.
  
 Gaussian, Inc.
 340 Quinnipiac St., Bldg. 40, Wallingford CT 06492
  
  
 ---------------------------------------------------------------
 Warning -- This program may not be used in any manner that
 competes with the business of Gaussian, Inc. or will provide
 assistance to any competitor of Gaussian, Inc.  The licensee
 of this program is prohibited from giving any competitor of
 Gaussian, Inc. access to this program.  By using this program,
 the user acknowledges that Gaussian, Inc. is engaged in the
 business of creating and licensing software in the field of
 computational chemistry and represents and warrants to the
 licensee that it is not a competitor of Gaussian, Inc. and that
 it will not use this program in any manner prohibited above.
 ---------------------------------------------------------------
  

 Cite this work as:
 Gaussian 16, Revision A.03,
 M. J. Frisch, G. W. Trucks, H. B. Schlegel, G. E. Scuseria, 
 M. A. Robb, J. R. Cheeseman, G. Scalmani, V. Barone, 
 G. A. Petersson, H. Nakatsuji, X. Li, M. Caricato, A. V. Marenich, 
 J. Bloino, B. G. Janesko, R. Gomperts, B. Mennucci, H. P. Hratchian, 
 J. V. Ortiz, A. F. Izmaylov, J. L. Sonnenberg, D. Williams-Young, 
 F. Ding, F. Lipparini, F. Egidi, J. Goings, B. Peng, A. Petrone, 
 T. Henderson, D. Ranasinghe, V. G. Zakrzewski, J. Gao, N. Rega, 
 G. Zheng, W. Liang, M. Hada, M. Ehara, K. Toyota, R. Fukuda, 
 J. Hasegawa, M. Ishida, T. Nakajima, Y. Honda, O. Kitao, H. Nakai, 
 T. Vreven, K. Throssell, J. A. Montgomery, Jr., J. E. Peralta, 
 F. Ogliaro, M. J. Bearpark, J. J. Heyd, E. N. Brothers, K. N. Kudin, 
 V. N. Staroverov, T. A. Keith, R. Kobayashi, J. Normand, 
 K. Raghavachari, A. P. Rendell, J. C. Burant, S. S. Iyengar, 
 J. Tomasi, M. Cossi, J. M. Millam, M. Klene, C. Adamo, R. Cammi, 
 J. W. Ochterski, R. L. Martin, K. Morokuma, O. Farkas, 
 J. B. Foresman, and D. J. Fox, Gaussian, Inc., Wallingford CT, 2016.
 
 ******************************************
 Gaussian 16:  ES64L-G16RevA.03 25-Dec-2016
                 1-Aug-2020 
 ******************************************
 %chk=Cl-_UB3LYP-aug-cc-pVDZ-Opt.chk
 %mem=500MW
 %nproc=7
 Will use up to    7 processors via shared memory.
 ----------------------------------------------------------------------
 #p opt=(maxcycles=777) freq ub3lyp/aug-cc-pVDZ pop=(Bonding,AllOrbital
 s,mk,no,nboread)
 ----------------------------------------------------------------------
 1/6=777,18=20,19=15,26=3,38=1/1,3;
 2/9=110,12=2,17=6,18=5,40=1/2;
 3/5=16,7=10,11=2,25=1,30=1,71=1,74=-5,116=2/1,2,3;
 4//1;
 5/5=2,38=5/2;
 6/7=2,8=2,9=2,10=2,15=8,20=1,22=-1,27=20,28=1,31=1,40=2,96=-1/1,2,7;
 7//1,2,3,16;
 1/6=777,18=20,19=15,26=3/3(2);
 2/9=110/2;
 99//99;
 2/9=110/2;
 3/5=16,7=10,11=2,25=1,30=1,71=1,74=-5,116=2/1,2,3;
 4/5=5,16=3,69=1/1;
 5/5=2,38=5/2;
 7//1,2,3,16;
 1/6=777,18=20,19=15,26=3/3(-5);
 2/9=110/2;
 6/7=2,8=2,9=2,10=2,15=8,19=2,20=1,22=-1,27=20,28=1,31=1,40=2,96=-1/1,2,7;
 99/9=1/99;
 Leave Link    1 at Sat Aug  1 13:47:50 2020, MaxMem=   524288000 cpu:               0.3 elap:               0.1
 (Enter /home/ubuntu/g16/l101.exe)
 ----------------------
 Cl-_UB3LYP-aug-cc-pVDZ
 ----------------------
 Symbolic Z-matrix:
 Charge = -1 Multiplicity = 1
 Cl                   -0.74756  -0.5277    0.004 
 
 ITRead=  0
 MicOpt= -1
 NAtoms=      1 NQM=        1 NQMF=       0 NMMI=      0 NMMIF=      0
                NMic=       0 NMicF=      0.
                    Isotopes and Nuclear Properties:
 (Nuclear quadrupole moments (NQMom) in fm**2, nuclear magnetic moments (NMagM)
  in nuclear magnetons)

  Atom         1
 IAtWgt=          35
 AtmWgt=  34.9688527
 NucSpn=           3
 AtZEff=  -0.0000000
 NQMom=   -8.1650000
 NMagM=    0.8218740
 AtZNuc=  17.0000000
 Leave Link  101 at Sat Aug  1 13:47:50 2020, MaxMem=   524288000 cpu:               0.5 elap:               0.1
 (Enter /home/ubuntu/g16/l103.exe)

 GradGradGradGradGradGradGradGradGradGradGradGradGradGradGradGradGradGrad
 Berny optimization.
 Initialization pass.
 No Z-matrix variables, so optimization will use Cartesian coordinates.
 Trust Radius=1.00D-01 FncErr=1.00D-07 GrdErr=1.00D-06 EigMax=2.50D+02 EigMin=1.00D-04
 Number of steps in this run=    100 maximum allowed number of steps=    100.
 GradGradGradGradGradGradGradGradGradGradGradGradGradGradGradGradGradGrad

 Leave Link  103 at Sat Aug  1 13:47:50 2020, MaxMem=   524288000 cpu:               0.1 elap:               0.0
 (Enter /home/ubuntu/g16/l202.exe)
                          Input orientation:                          
 ---------------------------------------------------------------------
 Center     Atomic      Atomic             Coordinates (Angstroms)
 Number     Number       Type             X           Y           Z
 ---------------------------------------------------------------------
      1         17           0       -0.747560   -0.527700    0.004000
 ---------------------------------------------------------------------
 Stoichiometry    Cl(1-)
 Framework group  OH[O(Cl)]
 Deg. of freedom     0
 Full point group                 OH      NOp  48
 Largest Abelian subgroup         D2H     NOp   8
 Largest concise Abelian subgroup C1      NOp   1
                         Standard orientation:                         
 ---------------------------------------------------------------------
 Center     Atomic      Atomic             Coordinates (Angstroms)
 Number     Number       Type             X           Y           Z
 ---------------------------------------------------------------------
      1         17           0        0.000000    0.000000    0.000000
 ---------------------------------------------------------------------
 Leave Link  202 at Sat Aug  1 13:47:51 2020, MaxMem=   524288000 cpu:               0.1 elap:               0.0
 (Enter /home/ubuntu/g16/l301.exe)
 Standard basis: Aug-CC-pVDZ (5D, 7F)
 Ernie: Thresh=  0.10000D-02 Tol=  0.10000D-05 Strict=F.
 Ernie:  10 primitive shells out of 53 were deleted.
 There are    11 symmetry adapted cartesian basis functions of AG  symmetry.
 There are     2 symmetry adapted cartesian basis functions of B1G symmetry.
 There are     2 symmetry adapted cartesian basis functions of B2G symmetry.
 There are     2 symmetry adapted cartesian basis functions of B3G symmetry.
 There are     0 symmetry adapted cartesian basis functions of AU  symmetry.
 There are     4 symmetry adapted cartesian basis functions of B1U symmetry.
 There are     4 symmetry adapted cartesian basis functions of B2U symmetry.
 There are     4 symmetry adapted cartesian basis functions of B3U symmetry.
 There are     9 symmetry adapted basis functions of AG  symmetry.
 There are     2 symmetry adapted basis functions of B1G symmetry.
 There are     2 symmetry adapted basis functions of B2G symmetry.
 There are     2 symmetry adapted basis functions of B3G symmetry.
 There are     0 symmetry adapted basis functions of AU  symmetry.
 There are     4 symmetry adapted basis functions of B1U symmetry.
 There are     4 symmetry adapted basis functions of B2U symmetry.
 There are     4 symmetry adapted basis functions of B3U symmetry.
    27 basis functions,    81 primitive gaussians,    29 cartesian basis functions
     9 alpha electrons        9 beta electrons
       nuclear repulsion energy         0.0000000000 Hartrees.
 IExCor=  402 DFT=T Ex+Corr=B3LYP ExCW=0 ScaHFX=  0.200000
 ScaDFX=  0.800000  0.720000  1.000000  0.810000 ScalE2=  1.000000  1.000000
 IRadAn=      5 IRanWt=     -1 IRanGd=            0 ICorTp=0 IEmpDi=  4
 NAtoms=    1 NActive=    1 NUniq=    1 SFac= 1.00D+00 NAtFMM=   60 NAOKFM=F Big=F
 Integral buffers will be    131072 words long.
 Raffenetti 2 integral format.
 Two-electron integral symmetry is turned on.
 Leave Link  301 at Sat Aug  1 13:47:51 2020, MaxMem=   524288000 cpu:               0.3 elap:               0.1
 (Enter /home/ubuntu/g16/l302.exe)
 NPDir=0 NMtPBC=     1 NCelOv=     1 NCel=       1 NClECP=     1 NCelD=      1
         NCelK=      1 NCelE2=     1 NClLst=     1 CellRange=     0.0.
 One-electron integrals computed using PRISM.
 One-electron integral symmetry used in STVInt
 NBasis=    27 RedAO= T EigKep=  5.49D-02  NBF=     9     2     2     2     0     4     4     4
 NBsUse=    27 1.00D-06 EigRej= -1.00D+00 NBFU=     9     2     2     2     0     4     4     4
 Precomputing XC quadrature grid using
 IXCGrd= 4 IRadAn=           5 IRanWt=          -1 IRanGd=           0 AccXCQ= 0.00D+00.
 Generated NRdTot=       0 NPtTot=           0 NUsed=           0 NTot=          32
 NSgBfM=    29    29    29    29    29 MxSgAt=     1 MxSgA2=     1.
 Leave Link  302 at Sat Aug  1 13:47:51 2020, MaxMem=   524288000 cpu:               1.0 elap:               0.2
 (Enter /home/ubuntu/g16/l303.exe)
 DipDrv:  MaxL=1.
 Leave Link  303 at Sat Aug  1 13:47:51 2020, MaxMem=   524288000 cpu:               0.2 elap:               0.0
 (Enter /home/ubuntu/g16/l401.exe)
 ExpMin= 4.66D-02 ExpMax= 1.28D+05 ExpMxC= 1.24D+03 IAcc=3 IRadAn=         5 AccDes= 0.00D+00
 Harris functional with IExCor=  402 and IRadAn=       5 diagonalized for initial guess.
 HarFok:  IExCor=  402 AccDes= 0.00D+00 IRadAn=         5 IDoV= 1 UseB2=F ITyADJ=14
 ICtDFT=  3500011 ScaDFX=  1.000000  1.000000  1.000000  1.000000
 FoFCou: FMM=F IPFlag=           0 FMFlag=      100000 FMFlg1=           0
         NFxFlg=           0 DoJE=T BraDBF=F KetDBF=T FulRan=T
         wScrn=  0.000000 ICntrl=       500 IOpCl=  0 I1Cent=   200000004 NGrid=           0
         NMat0=    1 NMatS0=      1 NMatT0=    0 NMatD0=    1 NMtDS0=    0 NMtDT0=    0
 Petite list used in FoFCou.
 Harris En= -460.355771953379    
 JPrj=0 DoOrth=F DoCkMO=F.
 Initial guess orbital symmetries:
 Alpha Orbitals:
       Occupied  (A1G) (A1G) (T1U) (T1U) (T1U) (A1G) (T1U) (T1U)
                 (T1U)
       Virtual   (A1G) (T1U) (T1U) (T1U) (T2G) (T2G) (T2G) (EG)
                 (EG) (T1U) (T1U) (T1U) (A1G) (T2G) (T2G) (T2G)
                 (EG) (EG)
 Beta  Orbitals:
       Occupied  (A1G) (A1G) (T1U) (T1U) (T1U) (A1G) (T1U) (T1U)
                 (T1U)
       Virtual   (A1G) (T1U) (T1U) (T1U) (T2G) (T2G) (T2G) (EG)
                 (EG) (T1U) (T1U) (T1U) (A1G) (T2G) (T2G) (T2G)
                 (EG) (EG)
 The electronic state of the initial guess is 1-A1G.
 Initial guess <Sx>= 0.0000 <Sy>= 0.0000 <Sz>= 0.0000 <S**2>=-0.0000 S=-0.0000
 Leave Link  401 at Sat Aug  1 13:47:51 2020, MaxMem=   524288000 cpu:               1.6 elap:               0.2
 (Enter /home/ubuntu/g16/l502.exe)
 Keep R1 and R2 ints in memory in symmetry-blocked form, NReq=6112093.
 FoFCou: FMM=F IPFlag=           0 FMFlag=           0 FMFlg1=           0
         NFxFlg=           0 DoJE=F BraDBF=F KetDBF=F FulRan=T
         wScrn=  0.000000 ICntrl=       600 IOpCl=  0 I1Cent=           0 NGrid=           0
         NMat0=    1 NMatS0=    378 NMatT0=    0 NMatD0=    1 NMtDS0=    0 NMtDT0=    0
 Petite list used in FoFCou.
 UHF open shell SCF:
 Using DIIS extrapolation, IDIIS=  1040.
 NGot=   524288000 LenX=   524260778 LenY=   524259496
 Requested convergence on RMS density matrix=1.00D-08 within 128 cycles.
 Requested convergence on MAX density matrix=1.00D-06.
 Requested convergence on             energy=1.00D-06.
 No special actions if energy rises.

 Cycle   1  Pass 1  IDiag  1:
 E= -460.266562548080    
 DIIS: error= 2.39D-02 at cycle   1 NSaved=   1.
 NSaved= 1 IEnMin= 1 EnMin= -460.266562548080     IErMin= 1 ErrMin= 2.39D-02
 ErrMax= 2.39D-02  0.00D+00 EMaxC= 1.00D-01 BMatC= 7.66D-02 BMatP= 7.66D-02
 IDIUse=3 WtCom= 7.61D-01 WtEn= 2.39D-01
 Coeff-Com:  0.100D+01
 Coeff-En:   0.100D+01
 Coeff:      0.100D+01
 Gap=     0.206 Goal=   None    Shift=    0.000
 Gap=     0.206 Goal=   None    Shift=    0.000
 GapD=    0.206 DampG=1.000 DampE=0.500 DampFc=0.5000 IDamp=-1.
 Damping current iteration by 5.00D-01
 RMSDP=1.71D-02 MaxDP=1.33D-01              OVMax= 4.98D-02

 Cycle   2  Pass 1  IDiag  1:
 E= -460.276441780449     Delta-E=       -0.009879232369 Rises=F Damp=T
 DIIS: error= 9.35D-03 at cycle   2 NSaved=   2.
 NSaved= 2 IEnMin= 2 EnMin= -460.276441780449     IErMin= 2 ErrMin= 9.35D-03
 ErrMax= 9.35D-03  0.00D+00 EMaxC= 1.00D-01 BMatC= 1.11D-02 BMatP= 7.66D-02
 IDIUse=3 WtCom= 9.06D-01 WtEn= 9.35D-02
 Coeff-Com:  0.208D+00 0.792D+00
 Coeff-En:   0.302D+00 0.698D+00
 Coeff:      0.217D+00 0.783D+00
 Gap=     0.273 Goal=   None    Shift=    0.000
 Gap=     0.273 Goal=   None    Shift=    0.000
 RMSDP=1.56D-03 MaxDP=1.34D-02 DE=-9.88D-03 OVMax= 2.71D-02

 Cycle   3  Pass 1  IDiag  1:
 E= -460.298176786572     Delta-E=       -0.021735006123 Rises=F Damp=F
 DIIS: error= 4.26D-04 at cycle   3 NSaved=   3.
 NSaved= 3 IEnMin= 3 EnMin= -460.298176786572     IErMin= 3 ErrMin= 4.26D-04
 ErrMax= 4.26D-04  0.00D+00 EMaxC= 1.00D-01 BMatC= 2.09D-05 BMatP= 1.11D-02
 IDIUse=3 WtCom= 9.96D-01 WtEn= 4.26D-03
 Coeff-Com:  0.159D-01 0.188D-01 0.965D+00
 Coeff-En:   0.000D+00 0.000D+00 0.100D+01
 Coeff:      0.158D-01 0.187D-01 0.965D+00
 Gap=     0.280 Goal=   None    Shift=    0.000
 Gap=     0.280 Goal=   None    Shift=    0.000
 RMSDP=9.65D-05 MaxDP=1.03D-03 DE=-2.17D-02 OVMax= 9.78D-05

 Cycle   4  Pass 1  IDiag  1:
 E= -460.298180192596     Delta-E=       -0.000003406025 Rises=F Damp=F
 DIIS: error= 1.04D-04 at cycle   4 NSaved=   4.
 NSaved= 4 IEnMin= 4 EnMin= -460.298180192596     IErMin= 4 ErrMin= 1.04D-04
 ErrMax= 1.04D-04  0.00D+00 EMaxC= 1.00D-01 BMatC= 1.69D-06 BMatP= 2.09D-05
 IDIUse=3 WtCom= 9.99D-01 WtEn= 1.04D-03
 Coeff-Com:  0.280D-02-0.663D-02-0.490D-01 0.105D+01
 Coeff-En:   0.000D+00 0.000D+00 0.000D+00 0.100D+01
 Coeff:      0.280D-02-0.662D-02-0.489D-01 0.105D+01
 Gap=     0.280 Goal=   None    Shift=    0.000
 Gap=     0.280 Goal=   None    Shift=    0.000
 RMSDP=2.33D-05 MaxDP=2.42D-04 DE=-3.41D-06 OVMax= 8.45D-05

 Cycle   5  Pass 1  IDiag  1:
 E= -460.298180705255     Delta-E=       -0.000000512659 Rises=F Damp=F
 DIIS: error= 1.19D-05 at cycle   5 NSaved=   5.
 NSaved= 5 IEnMin= 5 EnMin= -460.298180705255     IErMin= 5 ErrMin= 1.19D-05
 ErrMax= 1.19D-05  0.00D+00 EMaxC= 1.00D-01 BMatC= 2.05D-08 BMatP= 1.69D-06
 IDIUse=1 WtCom= 1.00D+00 WtEn= 0.00D+00
 Coeff-Com:  0.594D-03-0.106D-02-0.377D-02 0.872D-01 0.917D+00
 Coeff:      0.594D-03-0.106D-02-0.377D-02 0.872D-01 0.917D+00
 Gap=     0.280 Goal=   None    Shift=    0.000
 Gap=     0.280 Goal=   None    Shift=    0.000
 RMSDP=2.70D-06 MaxDP=2.43D-05 DE=-5.13D-07 OVMax= 9.52D-06

 Cycle   6  Pass 1  IDiag  1:
 E= -460.298180712164     Delta-E=       -0.000000006909 Rises=F Damp=F
 DIIS: error= 1.86D-06 at cycle   6 NSaved=   6.
 NSaved= 6 IEnMin= 6 EnMin= -460.298180712164     IErMin= 6 ErrMin= 1.86D-06
 ErrMax= 1.86D-06  0.00D+00 EMaxC= 1.00D-01 BMatC= 5.25D-10 BMatP= 2.05D-08
 IDIUse=1 WtCom= 1.00D+00 WtEn= 0.00D+00
 Coeff-Com: -0.212D-04 0.451D-04 0.341D-03-0.101D-01-0.166D+00 0.118D+01
 Coeff:     -0.212D-04 0.451D-04 0.341D-03-0.101D-01-0.166D+00 0.118D+01
 Gap=     0.280 Goal=   None    Shift=    0.000
 Gap=     0.280 Goal=   None    Shift=    0.000
 RMSDP=5.16D-07 MaxDP=4.88D-06 DE=-6.91D-09 OVMax= 1.91D-06

 Cycle   7  Pass 1  IDiag  1:
 E= -460.298180712341     Delta-E=       -0.000000000177 Rises=F Damp=F
 DIIS: error= 7.40D-08 at cycle   7 NSaved=   7.
 NSaved= 7 IEnMin= 7 EnMin= -460.298180712341     IErMin= 7 ErrMin= 7.40D-08
 ErrMax= 7.40D-08  0.00D+00 EMaxC= 1.00D-01 BMatC= 8.09D-13 BMatP= 5.25D-10
 IDIUse=1 WtCom= 1.00D+00 WtEn= 0.00D+00
 Coeff-Com: -0.191D-06 0.393D-06-0.166D-05 0.128D-03 0.855D-02-0.241D-01
 Coeff-Com:  0.102D+01
 Coeff:     -0.191D-06 0.393D-06-0.166D-05 0.128D-03 0.855D-02-0.241D-01
 Coeff:      0.102D+01
 Gap=     0.280 Goal=   None    Shift=    0.000
 Gap=     0.280 Goal=   None    Shift=    0.000
 RMSDP=1.98D-08 MaxDP=1.80D-07 DE=-1.77D-10 OVMax= 6.89D-08

 Cycle   8  Pass 1  IDiag  1:
 E= -460.298180712341     Delta-E=        0.000000000000 Rises=F Damp=F
 DIIS: error= 6.77D-10 at cycle   8 NSaved=   8.
 NSaved= 8 IEnMin= 7 EnMin= -460.298180712341     IErMin= 8 ErrMin= 6.77D-10
 ErrMax= 6.77D-10  0.00D+00 EMaxC= 1.00D-01 BMatC= 6.79D-17 BMatP= 8.09D-13
 IDIUse=1 WtCom= 1.00D+00 WtEn= 0.00D+00
 Coeff-Com: -0.280D-08 0.595D-08 0.103D-07 0.357D-06 0.763D-04-0.342D-04
 Coeff-Com:  0.400D-02 0.996D+00
 Coeff:     -0.280D-08 0.595D-08 0.103D-07 0.357D-06 0.763D-04-0.342D-04
 Coeff:      0.400D-02 0.996D+00
 Gap=     0.280 Goal=   None    Shift=    0.000
 Gap=     0.280 Goal=   None    Shift=    0.000
 RMSDP=1.79D-10 MaxDP=1.65D-09 DE= 0.00D+00 OVMax= 6.35D-10

 SCF Done:  E(UB3LYP) =  -460.298180712     A.U. after    8 cycles
            NFock=  8  Conv=0.18D-09     -V/T= 2.0022
 <Sx>= 0.0000 <Sy>= 0.0000 <Sz>= 0.0000 <S**2>=-0.0000 S=-0.0000
 <L.S>= 0.000000000000E+00
 KE= 4.592997282111D+02 PE=-1.100327425598D+03 EE= 1.807295166741D+02
 Annihilation of the first spin contaminant:
 S**2 before annihilation    -0.0000,   after    -0.0000
 Leave Link  502 at Sat Aug  1 13:47:51 2020, MaxMem=   524288000 cpu:               2.1 elap:               0.3
 (Enter /home/ubuntu/g16/l601.exe)
 Copying SCF densities to generalized density rwf, IOpCl= 1 IROHF=0.

 **********************************************************************

            Population analysis using the SCF density.

 **********************************************************************

 Orbital symmetries:
 Alpha Orbitals:
       Occupied  (A1G) (A1G) (T1U) (T1U) (T1U) (A1G) (T1U) (T1U)
                 (T1U)
       Virtual   (T1U) (T1U) (T1U) (A1G) (T2G) (T2G) (T2G) (EG)
                 (EG) (T1U) (T1U) (T1U) (A1G) (T2G) (T2G) (T2G)
                 (EG) (EG)
 Beta  Orbitals:
       Occupied  (A1G) (A1G) (T1U) (T1U) (T1U) (A1G) (T1U) (T1U)
                 (T1U)
       Virtual   (T1U) (T1U) (T1U) (A1G) (T2G) (T2G) (T2G) (EG)
                 (EG) (T1U) (T1U) (T1U) (A1G) (T2G) (T2G) (T2G)
                 (EG) (EG)
 The electronic state is 1-A1G.
     Natural Orbital Coefficients:
                           1         2         3         4         5
     Eigenvalues --     2.00000   2.00000   2.00000   2.00000   2.00000
   1 1   Cl 1S          0.01941   0.28145   0.00000   0.00000   0.00000
   2        2S          0.57544   0.74154   0.00000   0.00000   0.00000
   3        3S          0.36838  -0.33832   0.00000   0.00000   0.00000
   4        4S          0.32070  -0.39223   0.00000   0.00000   0.00000
   5        5S          0.03827  -0.03304   0.00000   0.00000   0.00000
   6        6PX         0.00000   0.00000  -0.00000   1.01544  -0.00000
   7        6PY         0.00000   0.00000  -0.20825   0.00000   0.99800
   8        6PZ         0.00000   0.00000   1.00686   0.00000   0.19814
   9        7PX         0.00000   0.00000  -0.00000  -0.23898  -0.00000
  10        7PY         0.00000   0.00000   0.00046  -0.00000  -0.22627
  11        7PZ         0.00000   0.00000  -0.15165  -0.00000  -0.05056
  12        8PX         0.00000   0.00000  -0.00000  -0.18218  -0.00000
  13        8PY         0.00000   0.00000   0.00214  -0.00000  -0.17280
  14        8PZ         0.00000   0.00000  -0.11875  -0.00000  -0.03839
  15        9PX         0.00000   0.00000  -0.00000  -0.06540  -0.00000
  16        9PY         0.00000   0.00000   0.00047  -0.00000  -0.06198
  17        9PZ         0.00000   0.00000  -0.04211  -0.00000  -0.01381
  18       10D 0       -0.00000  -0.00000   0.00000   0.00000   0.00000
  19       10D+1       -0.00000   0.00000   0.00000   0.00000   0.00000
  20       10D-1       -0.00000  -0.00000   0.00000   0.00000   0.00000
  21       10D+2       -0.00000  -0.00000   0.00000   0.00000   0.00000
  22       10D-2        0.00000   0.00000   0.00000   0.00000   0.00000
  23       11D 0        0.00000  -0.00000   0.00000   0.00000   0.00000
  24       11D+1        0.00000  -0.00000   0.00000   0.00000   0.00000
  25       11D-1       -0.00000  -0.00000   0.00000   0.00000   0.00000
  26       11D+2       -0.00000  -0.00000   0.00000   0.00000   0.00000
  27       11D-2       -0.00000  -0.00000   0.00000   0.00000   0.00000
                           6         7         8         9        10
     Eigenvalues --     2.00000   2.00000   2.00000   2.00000   0.00000
   1 1   Cl 1S         -1.00386   0.00000   0.00000   0.00000   0.00943
   2        2S          0.53721   0.00000   0.00000   0.00000   0.01611
   3        3S         -0.11706   0.00000   0.00000   0.00000   0.14043
   4        4S         -0.15619   0.00000   0.00000   0.00000  -0.13843
   5        5S         -0.01103   0.00000   0.00000   0.00000  -0.00558
   6        6PX         0.00000   0.00000   0.16993   0.00000   0.00000
   7        6PY         0.00000   0.03384   0.00000   0.13951   0.00000
   8        6PZ         0.00000   0.02706   0.00000   0.07899   0.00000
   9        7PX         0.00000   0.00000   0.56076   0.00000   0.00000
  10        7PY         0.00000  -0.01221  -0.00000   0.56588   0.00000
  11        7PZ         0.00000   0.58818  -0.00000  -0.00739   0.00000
  12        8PX         0.00000   0.00000   0.40532   0.00000   0.00000
  13        8PY         0.00000  -0.00915  -0.00000   0.40930   0.00000
  14        8PZ         0.00000   0.42645  -0.00000  -0.00605   0.00000
  15        9PX         0.00000   0.00000   0.14915   0.00000   0.00000
  16        9PY         0.00000  -0.00331  -0.00000   0.15057   0.00000
  17        9PZ         0.00000   0.15670  -0.00000  -0.00210   0.00000
  18       10D 0        0.00000   0.00000   0.00000   0.00000  -0.76877
  19       10D+1        0.00000   0.00000   0.00000   0.00000   0.09452
  20       10D-1        0.00000   0.00000   0.00000   0.00000  -0.00754
  21       10D+2        0.00000   0.00000   0.00000   0.00000   0.80949
  22       10D-2        0.00000   0.00000   0.00000   0.00000   0.04419
  23       11D 0        0.00000   0.00000   0.00000   0.00000   0.60718
  24       11D+1       -0.00000   0.00000   0.00000   0.00000  -0.05558
  25       11D-1        0.00000   0.00000   0.00000   0.00000  -0.00754
  26       11D+2        0.00000   0.00000   0.00000   0.00000  -0.87385
  27       11D-2       -0.00000   0.00000   0.00000   0.00000  -0.07627
                          11        12        13        14        15
     Eigenvalues --     0.00000   0.00000   0.00000   0.00000   0.00000
   1 1   Cl 1S         -0.03762   0.03185  -0.02940   0.00000   0.04647
   2        2S         -0.22198   0.14835   0.03689   0.00000   0.13610
   3        3S         -0.80475   0.61994  -0.30270   0.00000   0.77992
   4        4S          1.75367  -1.18313  -0.23214   0.00000  -1.11414
   5        5S         -1.25375   0.74118   0.72225   0.00000   0.43135
   6        6PX         0.00000   0.00000   0.00000   0.00000   0.00000
   7        6PY         0.00000   0.00000   0.00000  -0.03600   0.00000
   8        6PZ         0.00000   0.00000   0.00000   0.28777   0.00000
   9        7PX         0.00000   0.00000   0.00000  -0.00000   0.00000
  10        7PY         0.00000   0.00000   0.00000   0.17040   0.00000
  11        7PZ         0.00000   0.00000   0.00000  -1.21141   0.00000
  12        8PX         0.00000   0.00000   0.00000   0.00000   0.00000
  13        8PY         0.00000   0.00000   0.00000  -0.30420   0.00000
  14        8PZ         0.00000   0.00000   0.00000   1.61108   0.00000
  15        9PX         0.00000   0.00000   0.00000   0.00000   0.00000
  16        9PY         0.00000   0.00000   0.00000   0.23613   0.00000
  17        9PZ         0.00000   0.00000   0.00000  -0.79303   0.00000
  18       10D 0       -0.05518  -0.42647  -0.28658   0.00000   0.35021
  19       10D+1        0.41939  -0.27273   0.70595   0.00000  -0.21127
  20       10D-1       -0.03856  -0.03267  -0.03848   0.00000   0.20365
  21       10D+2       -0.15515  -0.43538   0.02905   0.00000   0.61390
  22       10D-2        0.53144   0.33595  -0.13000   0.00000   0.12608
  23       11D 0       -0.20331   0.49055  -0.29684   0.00000  -0.56541
  24       11D+1       -0.06869  -0.12274  -0.58836   0.00000   0.28408
  25       11D-1       -0.03856  -0.03267  -0.03848   0.00000   0.20365
  26       11D+2       -0.07673   0.23106   0.21451   0.00000  -0.16503
  27       11D-2        0.08575   0.39138   0.15087   0.00000   0.36022
                          16        17        18        19        20
     Eigenvalues --     0.00000   0.00000   0.00000  -0.00000  -0.00000
   1 1   Cl 1S         -0.05439   0.00000   0.00000  -0.09371   0.00000
   2        2S         -0.17413   0.00000   0.00000  -0.19752   0.00000
   3        3S         -0.93583   0.00000   0.00000  -1.45341   0.00000
   4        4S          1.41706   0.00000  -0.00000   1.66063   0.00000
   5        5S         -0.62493   0.00000   0.00000  -0.24743   0.00000
   6        6PX         0.00000  -0.01799   0.00000   0.00000   0.32973
   7        6PY         0.00000   0.00000   0.00000   0.00000  -0.00000
   8        6PZ         0.00000   0.00000   0.00000   0.00000  -0.00000
   9        7PX         0.00000  -0.11341   0.00000   0.00000  -1.30285
  10        7PY         0.00000  -0.00000   0.00000   0.00000   0.00000
  11        7PZ         0.00000  -0.00000   0.00000   0.00000   0.00000
  12        8PX         0.00000   0.92891   0.00000   0.00000   1.38231
  13        8PY         0.00000   0.00000   0.00000   0.00000  -0.00000
  14        8PZ         0.00000   0.00000   0.00000   0.00000  -0.00000
  15        9PX         0.00000  -1.32361   0.00000   0.00000  -0.29029
  16        9PY         0.00000   0.00000   0.00000   0.00000  -0.00000
  17        9PZ         0.00000  -0.00000   0.00000   0.00000   0.00000
  18       10D 0       -0.09120   0.00000   0.00000   0.05796   0.00000
  19       10D+1       -0.02343   0.00000   0.00000  -0.49633   0.00000
  20       10D-1       -0.03142   0.00000   1.10943   0.11254   0.00000
  21       10D+2        0.36545   0.00000   0.00000   0.02997   0.00000
  22       10D-2       -0.00149   0.00000   0.00000  -0.36257   0.00000
  23       11D 0        0.50129   0.00000  -0.00000  -0.13297   0.00000
  24       11D+1       -0.06611   0.00000  -0.00000   0.32594   0.00000
  25       11D-1       -0.03142   0.00000  -1.10943   0.11254   0.00000
  26       11D+2        0.47688   0.00000   0.00000  -0.37090   0.00000
  27       11D-2        0.17659   0.00000  -0.00000   0.47733   0.00000
                          21        22        23        24        25
     Eigenvalues --    -0.00000  -0.00000  -0.00000  -0.00000  -0.00000
   1 1   Cl 1S          0.00000  -0.01169   0.00000   0.00733  -0.02805
   2        2S          0.00000   0.01927   0.00000   0.08619  -0.00756
   3        3S          0.00000  -0.11314   0.00000   0.22338  -0.35502
   4        4S          0.00000  -0.12740   0.00000  -0.66879   0.10421
   5        5S          0.00000   0.32435   0.00000   0.59168   0.34309
   6        6PX         0.00000   0.00000   0.00000   0.00000   0.00000
   7        6PY         0.11872   0.00000   0.20544   0.00000   0.00000
   8        6PZ        -0.09002   0.00000   0.13196   0.00000   0.00000
   9        7PX        -0.00000   0.00000  -0.00000   0.00000   0.00000
  10        7PY        -0.54812   0.00000  -0.89886   0.00000   0.00000
  11        7PZ         0.21083   0.00000  -0.43572   0.00000   0.00000
  12        8PX         0.00000   0.00000   0.00000   0.00000   0.00000
  13        8PY         0.92786   0.00000   1.33536   0.00000   0.00000
  14        8PZ         0.41122   0.00000   0.08677   0.00000   0.00000
  15        9PX         0.00000   0.00000   0.00000   0.00000   0.00000
  16        9PY        -0.67820   0.00000  -0.81315   0.00000   0.00000
  17        9PZ        -0.97250   0.00000   0.50589   0.00000   0.00000
  18       10D 0        0.00000   0.72221   0.00000   0.08851   0.00444
  19       10D+1        0.00000   0.23111   0.00000   0.31887   0.09280
  20       10D-1        0.00000  -0.21410   0.00000  -0.08501   0.32219
  21       10D+2        0.00000   0.37978   0.00000  -0.06456  -0.06972
  22       10D-2        0.00000   0.32334   0.00000  -0.18569   0.77472
  23       11D 0        0.00000  -0.20508   0.00000   0.30145   0.17733
  24       11D+1        0.00000  -0.48395   0.00000   0.59196   0.05336
  25       11D-1        0.00000  -0.21410   0.00000  -0.08501   0.32219
  26       11D+2        0.00000  -0.52103   0.00000  -0.02681   0.04122
  27       11D-2        0.00000  -0.11204   0.00000   0.32168  -0.77916
                          26        27
     Eigenvalues --    -0.00000  -0.00000
   1 1   Cl 1S          0.00000   0.01620
   2        2S          0.00000   0.00242
   3        3S          0.00000   0.20198
   4        4S          0.00000  -0.04535
   5        5S          0.00000  -0.21385
   6        6PX        -0.00000   0.00000
   7        6PY        -0.22682   0.00000
   8        6PZ         0.02673   0.00000
   9        7PX         0.00000   0.00000
  10        7PY         0.75688   0.00000
  11        7PZ        -0.09203   0.00000
  12        8PX        -0.00000   0.00000
  13        8PY        -0.19235   0.00000
  14        8PZ         0.03814   0.00000
  15        9PX        -0.00000   0.00000
  16        9PY        -0.81196   0.00000
  17        9PZ         0.07505   0.00000
  18       10D 0        0.00000   0.15083
  19       10D+1        0.00000   0.57599
  20       10D-1        0.00000   0.31245
  21       10D+2        0.00000  -0.10116
  22       10D-2        0.00000  -0.49380
  23       11D 0        0.00000   0.22975
  24       11D+1        0.00000  -0.62988
  25       11D-1        0.00000   0.31245
  26       11D+2        0.00000  -0.09771
  27       11D-2        0.00000   0.49351
          Condensed to atoms (all electrons):
               1
     1  Cl  18.000000
          Atomic-Atomic Spin Densities.
               1
     1  Cl   0.000000
 Mulliken charges and spin densities:
               1          2
     1  Cl  -1.000000   0.000000
 Sum of Mulliken charges =  -1.00000   0.00000
 Mulliken charges and spin densities with hydrogens summed into heavy atoms:
               1          2
     1  Cl  -1.000000   0.000000

 Bonding Mulliken population analysis:
          Bonding Condensed to atoms (all electrons):
               1
     1  Cl   0.000000
          Bonding Atomic-Atomic Spin Densities.
               1
     1  Cl   0.000000
 Bonding Mulliken charges and spin densities:
               1          2
     1  Cl  17.000000   0.000000
 Sum of Bonding Mulliken charges =  17.00000   0.00000
 Bonding Mulliken charges and spin densities with hydrogens summed into heavy atoms:
               1          2
     1  Cl  17.000000   0.000000
 Electronic spatial extent (au):  <R**2>=             39.7060
 Charge=             -1.0000 electrons
 Dipole moment (field-independent basis, Debye):
    X=              0.0000    Y=              0.0000    Z=              0.0000  Tot=              0.0000
 Quadrupole moment (field-independent basis, Debye-Ang):
   XX=            -17.8020   YY=            -17.8020   ZZ=            -17.8020
   XY=             -0.0000   XZ=             -0.0000   YZ=             -0.0000
 Traceless Quadrupole moment (field-independent basis, Debye-Ang):
   XX=              0.0000   YY=              0.0000   ZZ=              0.0000
   XY=             -0.0000   XZ=             -0.0000   YZ=             -0.0000
 Octapole moment (field-independent basis, Debye-Ang**2):
  XXX=              0.0000  YYY=              0.0000  ZZZ=              0.0000  XYY=              0.0000
  XXY=              0.0000  XXZ=              0.0000  XZZ=              0.0000  YZZ=              0.0000
  YYZ=              0.0000  XYZ=              0.0000
 Hexadecapole moment (field-independent basis, Debye-Ang**3):
 XXXX=            -34.2853 YYYY=            -34.2853 ZZZZ=            -34.2853 XXXY=              0.0000
 XXXZ=              0.0000 YYYX=              0.0000 YYYZ=             -0.0000 ZZZX=              0.0000
 ZZZY=             -0.0000 XXYY=            -11.4284 XXZZ=            -11.4284 YYZZ=            -11.4284
 XXYZ=             -0.0000 YYXZ=              0.0000 ZZXY=              0.0000
 N-N= 0.000000000000D+00 E-N=-1.100327425519D+03  KE= 4.592997282111D+02
 Symmetry AG   KE= 3.237094640514D+02
 Symmetry B1G  KE= 1.616904375773D-61
 Symmetry B2G  KE= 1.854992925249D-61
 Symmetry B3G  KE= 1.479737741756D-61
 Symmetry AU   KE= 0.000000000000D+00
 Symmetry B1U  KE= 4.519675471989D+01
 Symmetry B2U  KE= 4.519675471989D+01
 Symmetry B3U  KE= 4.519675471989D+01
 Symmetry AG   SP= 1.959551080996D-15
 Symmetry B1G  SP= 1.149386265354D-62
 Symmetry B2G  SP= 7.333767963796D-63
 Symmetry B3G  SP= 1.488887535997D-62
 Symmetry AU   SP= 0.000000000000D+00
 Symmetry B1U  SP=-7.889202324564D-16
 Symmetry B2U  SP=-1.225743556539D-15
 Symmetry B3U  SP=-8.491113076121D-16

 Atomic contributions to Alpha molecular orbitals:
 Alpha occ 1 OE=-101.229 is Cl1-s=1.0000
 Alpha occ 2 OE=-9.144 is Cl1-s=1.0000
 Alpha occ 3 OE=-6.900 is Cl1-p=1.0000
 Alpha occ 4 OE=-6.900 is Cl1-p=1.0000
 Alpha occ 5 OE=-6.900 is Cl1-p=1.0000
 Alpha occ 6 OE=-0.483 is Cl1-s=1.0000
 Alpha occ 7 OE=-0.029 is Cl1-p=1.0000
 Alpha occ 8 OE=-0.029 is Cl1-p=1.0000
 Alpha occ 9 OE=-0.029 is Cl1-p=1.0000
 Alpha vir 10 OE=0.251 is Cl1-p=1.0000
 Alpha vir 11 OE=0.251 is Cl1-p=1.0000
 Alpha vir 12 OE=0.251 is Cl1-p=1.0000
 Alpha vir 13 OE=0.258 is Cl1-s=1.0000
 Alpha vir 14 OE=0.587 is Cl1-d=1.0000
 Alpha vir 15 OE=0.587 is Cl1-d=1.0000
 Alpha vir 16 OE=0.587 is Cl1-d=1.0000
 Alpha vir 17 OE=0.587 is Cl1-d=1.0000
 Alpha vir 18 OE=0.587 is Cl1-d=1.0000
 Alpha vir 19 OE=0.959 is Cl1-p=1.0000
 Alpha vir 20 OE=0.959 is Cl1-p=1.0000
 Alpha vir 21 OE=0.959 is Cl1-p=1.0000
 Alpha vir 22 OE=1.188 is Cl1-s=1.0000
 Alpha vir 23 OE=1.415 is Cl1-d=1.0000
 Alpha vir 24 OE=1.415 is Cl1-d=1.0000
 Alpha vir 25 OE=1.415 is Cl1-d=1.0000
 Alpha vir 26 OE=1.415 is Cl1-d=1.0000
 Alpha vir 27 OE=1.415 is Cl1-d=1.0000

 Atomic contributions to Beta  molecular orbitals:
 Beta  occ 1 OE=-101.229 is Cl1-s=1.0000
 Beta  occ 2 OE=-9.144 is Cl1-s=1.0000
 Beta  occ 3 OE=-6.900 is Cl1-p=1.0000
 Beta  occ 4 OE=-6.900 is Cl1-p=1.0000
 Beta  occ 5 OE=-6.900 is Cl1-p=1.0000
 Beta  occ 6 OE=-0.483 is Cl1-s=1.0000
 Beta  occ 7 OE=-0.029 is Cl1-p=1.0000
 Beta  occ 8 OE=-0.029 is Cl1-p=1.0000
 Beta  occ 9 OE=-0.029 is Cl1-p=1.0000
 Beta  vir 10 OE=0.251 is Cl1-p=1.0000
 Beta  vir 11 OE=0.251 is Cl1-p=1.0000
 Beta  vir 12 OE=0.251 is Cl1-p=1.0000
 Beta  vir 13 OE=0.258 is Cl1-s=1.0000
 Beta  vir 14 OE=0.587 is Cl1-d=1.0000
 Beta  vir 15 OE=0.587 is Cl1-d=1.0000
 Beta  vir 16 OE=0.587 is Cl1-d=1.0000
 Beta  vir 17 OE=0.587 is Cl1-d=1.0000
 Beta  vir 18 OE=0.587 is Cl1-d=1.0000
 Beta  vir 19 OE=0.959 is Cl1-p=1.0000
 Beta  vir 20 OE=0.959 is Cl1-p=1.0000
 Beta  vir 21 OE=0.959 is Cl1-p=1.0000
 Beta  vir 22 OE=1.188 is Cl1-s=1.0000
 Beta  vir 23 OE=1.415 is Cl1-d=1.0000
 Beta  vir 24 OE=1.415 is Cl1-d=1.0000
 Beta  vir 25 OE=1.415 is Cl1-d=1.0000
 Beta  vir 26 OE=1.415 is Cl1-d=1.0000
 Beta  vir 27 OE=1.415 is Cl1-d=1.0000
 
                          Isotropic Fermi Contact Couplings
        Atom                 a.u.       MegaHertz       Gauss      10(-4) cm-1
     1  Cl(35)            -0.00000      -0.00000      -0.00000      -0.00000
 --------------------------------------------------------
       Center         ----  Spin Dipole Couplings  ----
                      3XX-RR        3YY-RR        3ZZ-RR
 --------------------------------------------------------
     1   Atom        0.000000      0.000000      0.000000
 --------------------------------------------------------
                        XY            XZ            YZ
 --------------------------------------------------------
     1   Atom        0.000000      0.000000      0.000000
 --------------------------------------------------------


 ---------------------------------------------------------------------------------
              Anisotropic Spin Dipole Couplings in Principal Axis System
 ---------------------------------------------------------------------------------

       Atom             a.u.   MegaHertz   Gauss  10(-4) cm-1        Axes

              Baa     0.0000     0.000     0.000     0.000  1.0000  0.0000  0.0000
     1 Cl(35) Bbb     0.0000     0.000     0.000     0.000 -0.0000  1.0000  0.0000
              Bcc     0.0000     0.000     0.000     0.000  0.0000  0.0000  1.0000
 

 ---------------------------------------------------------------------------------

 No NMR shielding tensors so no spin-rotation constants.
 Leave Link  601 at Sat Aug  1 13:47:52 2020, MaxMem=   524288000 cpu:               1.1 elap:               0.2
 (Enter /home/ubuntu/g16/l602.exe)
 FitSet:  NAtFit=     1 NAtPot=     1 NAtFrz=     0 MDM=     5 TotChg=  -1.00000
 Merz-Kollman atomic radii used.

 **********************************************************************

            Electrostatic Properties Using The SCF Density

 **********************************************************************

       Atomic Center    1 is at   0.000000  0.000000  0.000000
     380 points will be used for fitting atomic charges
 Fitting point charges to electrostatic potential
 Charges from ESP fit, RMS=   0.00318 RRMS=   0.01781:
 ESP charges:
               1
     1  Cl  -1.000000
 Sum of ESP charges =  -1.00000
 ESP charges with hydrogens summed into heavy atoms:
               1
     1  Cl  -1.000000
 Charge=  -1.00000 Dipole=     0.0000     0.0000     0.0000 Tot=     0.0000
 -----------------------------------------------------------------

              Electrostatic Properties (Atomic Units)

 -----------------------------------------------------------------
    Center     Electric         -------- Electric Field --------
               Potential          X             Y             Z
 -----------------------------------------------------------------
    1 Atom    -64.725143
 -----------------------------------------------------------------
 Leave Link  602 at Sat Aug  1 13:47:52 2020, MaxMem=   524288000 cpu:               0.1 elap:               0.0
 (Enter /home/ubuntu/g16/l607.exe)
 ******************************Gaussian NBO Version 3.1******************************
             N A T U R A L   A T O M I C   O R B I T A L   A N D
          N A T U R A L   B O N D   O R B I T A L   A N A L Y S I S
 ******************************Gaussian NBO Version 3.1******************************

       /RESON  / : Allow strongly delocalized NBO set
       /BNDIDX / : Print bond indices based on the NAO density matrix

 Analyzing the SCF density

 Job title: Cl-_UB3LYP-aug-cc-pVDZ                                          

 Storage needed:      2415 in NPA,      3917 in NBO ( 524287991 available)
 GSVD:  LWork=         495 too small for GESVD, short by         189 words or         189 for optimal perf.
 GSVD:  LWork=         -63 too small for GESVD, short by        1593 words or        1593 for optimal perf.


 NATURAL POPULATIONS:  Natural atomic orbital occupancies 
                                                          
   NAO  Atom  No  lang   Type(AO)    Occupancy
 --------------------------------------------
     1   Cl    1  S      Cor( 2S)     2.00000
     2   Cl    1  S      Cor( 1S)     2.00000
     3   Cl    1  S      Val( 3S)     2.00000
     4   Cl    1  S      Ryd( 5S)     0.00000
     5   Cl    1  S      Ryd( 4S)     0.00000
     6   Cl    1  px     Cor( 2p)     2.00000
     7   Cl    1  px     Val( 3p)     2.00000
     8   Cl    1  px     Ryd( 4p)     0.00000
     9   Cl    1  px     Ryd( 5p)     0.00000
    10   Cl    1  py     Cor( 2p)     2.00000
    11   Cl    1  py     Val( 3p)     2.00000
    12   Cl    1  py     Ryd( 5p)     0.00000
    13   Cl    1  py     Ryd( 4p)     0.00000
    14   Cl    1  pz     Cor( 2p)     2.00000
    15   Cl    1  pz     Val( 3p)     2.00000
    16   Cl    1  pz     Ryd( 4p)     0.00000
    17   Cl    1  pz     Ryd( 5p)     0.00000
    18   Cl    1  dxy    Ryd( 3d)     0.00000
    19   Cl    1  dxy    Ryd( 4d)     0.00000
    20   Cl    1  dxz    Ryd( 3d)     0.00000
    21   Cl    1  dxz    Ryd( 4d)     0.00000
    22   Cl    1  dyz    Ryd( 4d)     0.00000
    23   Cl    1  dyz    Ryd( 3d)     0.00000
    24   Cl    1  dx2y2  Ryd( 4d)     0.00000
    25   Cl    1  dx2y2  Ryd( 3d)     0.00000
    26   Cl    1  dz2    Ryd( 4d)     0.00000
    27   Cl    1  dz2    Ryd( 3d)     0.00000


 Summary of Natural Population Analysis:                  
                                                          
                                       Natural Population 
                Natural  -----------------------------------------------
    Atom  No    Charge         Core      Valence    Rydberg      Total
 -----------------------------------------------------------------------
     Cl    1   -1.00000     10.00000     8.00000    0.00000    18.00000
 =======================================================================
   * Total *   -1.00000     10.00000     8.00000    0.00000    18.00000

                                 Natural Population      
 --------------------------------------------------------
   Core                      10.00000 (100.0000% of  10)
   Valence                    8.00000 (100.0000% of   8)
   Natural Minimal Basis     18.00000 (100.0000% of  18)
   Natural Rydberg Basis      0.00000 (  0.0000% of  18)
 --------------------------------------------------------

    Atom  No          Natural Electron Configuration
 ----------------------------------------------------------------------------
     Cl    1      [core]3S( 2.00)3p( 6.00)


 Wiberg bond index matrix in the NAO basis:                                    

     Atom    1
     ---- ------
   1. Cl  0.0000


 Wiberg bond index, Totals by atom:                                            

     Atom    1
     ---- ------
   1. Cl  0.0000


 Atom-atom overlap-weighted NAO bond order:                                    

     Atom    1
     ---- ------
   1. Cl  0.0000


 Atom-atom overlap-weighted NAO bond order, Totals by atom:                    

     Atom    1
     ---- ------
   1. Cl  0.0000


 MO bond order:                                                                

     Atom    1
     ---- ------
   1. Cl  0.0000


 MO atomic valencies:                                                          

     Atom    1
     ---- ------
   1. Cl  0.0000


 ***************************************************
 *******         Alpha spin orbitals         *******
 ***************************************************


 NATURAL POPULATIONS:  Natural atomic orbital occupancies 
                                                          
   NAO  Atom  No  lang   Type(AO)    Occupancy      Energy
 ----------------------------------------------------------
     1   Cl    1  S      Cor( 2S)     1.00000     -10.51941
     2   Cl    1  S      Cor( 3S)     1.00000      -5.63506
     3   Cl    1  S      Val( 1S)     1.00000     -94.70050
     4   Cl    1  S      Ryd( 5S)     0.00000       1.12021
     5   Cl    1  S      Ryd( 4S)     0.00000       0.32609
     6   Cl    1  px     Cor( 2p)     1.00000      -6.43275
     7   Cl    1  px     Val( 3p)     1.00000      -0.49622
     8   Cl    1  px     Ryd( 5p)     0.00000       0.95336
     9   Cl    1  px     Ryd( 4p)     0.00000       0.25739
    10   Cl    1  py     Cor( 2p)     1.00000      -6.43275
    11   Cl    1  py     Val( 3p)     1.00000      -0.49622
    12   Cl    1  py     Ryd( 5p)     0.00000       0.95336
    13   Cl    1  py     Ryd( 4p)     0.00000       0.25739
    14   Cl    1  pz     Cor( 2p)     1.00000      -6.43275
    15   Cl    1  pz     Val( 3p)     1.00000      -0.49622
    16   Cl    1  pz     Ryd( 5p)     0.00000       0.95336
    17   Cl    1  pz     Ryd( 4p)     0.00000       0.25739
    18   Cl    1  dxy    Ryd( 4d)     0.00000       1.40491
    19   Cl    1  dxy    Ryd( 3d)     0.00000       0.59708
    20   Cl    1  dxz    Ryd( 4d)     0.00000       1.40491
    21   Cl    1  dxz    Ryd( 3d)     0.00000       0.59708
    22   Cl    1  dyz    Ryd( 4d)     0.00000       1.40491
    23   Cl    1  dyz    Ryd( 3d)     0.00000       0.59708
    24   Cl    1  dx2y2  Ryd( 4d)     0.00000       1.40491
    25   Cl    1  dx2y2  Ryd( 3d)     0.00000       0.59708
    26   Cl    1  dz2    Ryd( 4d)     0.00000       1.40491
    27   Cl    1  dz2    Ryd( 3d)     0.00000       0.59708

 WARNING:  Population inversion found on atom Cl    1


 Summary of Natural Population Analysis:                  
                                                          
                                       Natural Population 
                Natural  -----------------------------------------------
    Atom  No    Charge         Core      Valence    Rydberg      Total
 -----------------------------------------------------------------------
     Cl    1   -0.50000      5.00000     4.00000    0.00000     9.00000
 =======================================================================
   * Total *   -0.50000      5.00000     4.00000    0.00000     9.00000

                                 Natural Population      
 --------------------------------------------------------
   Core                       5.00000 (100.0000% of   5)
   Valence                    4.00000 (100.0000% of   4)
   Natural Minimal Basis      9.00000 (100.0000% of   9)
   Natural Rydberg Basis      0.00000 (  0.0000% of   9)
 --------------------------------------------------------

    Atom  No          Natural Electron Configuration
 ----------------------------------------------------------------------------
     Cl    1      [core]3p( 3.00)


 Wiberg bond index matrix in the NAO basis:                                    

     Atom    1
     ---- ------
   1. Cl  0.0000


 Wiberg bond index, Totals by atom:                                            

     Atom    1
     ---- ------
   1. Cl  0.0000


 Atom-atom overlap-weighted NAO bond order:                                    

     Atom    1
     ---- ------
   1. Cl  0.0000


 Atom-atom overlap-weighted NAO bond order, Totals by atom:                    

     Atom    1
     ---- ------
   1. Cl  0.0000


 MO bond order:                                                                

     Atom    1
     ---- ------
   1. Cl  0.0000


 MO atomic valencies:                                                          

     Atom    1
     ---- ------
   1. Cl  0.0000


 NATURAL BOND ORBITAL ANALYSIS, alpha spin orbitals:

                       Occupancies       Lewis Structure    Low   High
           Occ.    -------------------  -----------------   occ   occ
  Cycle   Thresh.   Lewis   Non-Lewis     CR  BD  3C  LP    (L)   (NL)   Dev
 =============================================================================
   1(1)    0.90     9.00000  -0.00000      5   0   0   4     0      0    0.00
 -----------------------------------------------------------------------------

 Structure accepted: No low occupancy Lewis orbitals

 --------------------------------------------------------
   Core                      5.00000 (100.000% of   5)
   Valence Lewis             4.00000 (100.000% of   4)
  ==================       ============================
   Total Lewis               9.00000 (100.000% of   9)
  -----------------------------------------------------
   Valence non-Lewis         0.00000 (  0.000% of   9)
   Rydberg non-Lewis        -0.00000 ( -0.000% of   9)
  ==================       ============================
   Total non-Lewis          -0.00000 ( -0.000% of   9)
 --------------------------------------------------------


       (Occupancy)   Bond orbital/ Coefficients/ Hybrids
 ---------------------------------------------------------------------------------
     1. (1.00000) CR ( 1)Cl   1           s(100.00%)
                                            1.0000  0.0000  0.0000  0.0000  0.0000
                                            0.0000  0.0000  0.0000  0.0000  0.0000
                                            0.0000  0.0000  0.0000  0.0000  0.0000
                                            0.0000  0.0000  0.0000  0.0000  0.0000
                                            0.0000  0.0000  0.0000  0.0000  0.0000
                                            0.0000  0.0000
     2. (1.00000) CR ( 2)Cl   1           s(100.00%)
                                            0.0000  1.0000  0.0000  0.0000  0.0000
                                            0.0000  0.0000  0.0000  0.0000  0.0000
                                            0.0000  0.0000  0.0000  0.0000  0.0000
                                            0.0000  0.0000  0.0000  0.0000  0.0000
                                            0.0000  0.0000  0.0000  0.0000  0.0000
                                            0.0000  0.0000
     3. (1.00000) CR ( 3)Cl   1           s(  0.00%)p 1.00(100.00%)
                                            0.0000  0.0000  0.0000  0.0000  0.0000
                                            1.0000  0.0000  0.0000  0.0000  0.0000
                                            0.0000  0.0000  0.0000  0.0000  0.0000
                                            0.0000  0.0000  0.0000  0.0000  0.0000
                                            0.0000  0.0000  0.0000  0.0000  0.0000
                                            0.0000  0.0000
     4. (1.00000) CR ( 4)Cl   1           s(  0.00%)p 1.00(100.00%)
                                            0.0000  0.0000  0.0000  0.0000  0.0000
                                            0.0000  0.0000  0.0000  0.0000  1.0000
                                            0.0000  0.0000  0.0000  0.0000  0.0000
                                            0.0000  0.0000  0.0000  0.0000  0.0000
                                            0.0000  0.0000  0.0000  0.0000  0.0000
                                            0.0000  0.0000
     5. (1.00000) CR ( 5)Cl   1           s(  0.00%)p 1.00(100.00%)
                                            0.0000  0.0000  0.0000  0.0000  0.0000
                                            0.0000  0.0000  0.0000  0.0000  0.0000
                                            0.0000  0.0000  0.0000  1.0000  0.0000
                                            0.0000  0.0000  0.0000  0.0000  0.0000
                                            0.0000  0.0000  0.0000  0.0000  0.0000
                                            0.0000  0.0000
     6. (1.00000) LP ( 1)Cl   1           s(100.00%)
                                            0.0000  0.0000  1.0000  0.0000  0.0000
                                            0.0000  0.0000  0.0000  0.0000  0.0000
                                            0.0000  0.0000  0.0000  0.0000  0.0000
                                            0.0000  0.0000  0.0000  0.0000  0.0000
                                            0.0000  0.0000  0.0000  0.0000  0.0000
                                            0.0000  0.0000
     7. (1.00000) LP ( 2)Cl   1           s(  0.00%)p 1.00(100.00%)
                                            0.0000  0.0000  0.0000  0.0000  0.0000
                                            0.0000  1.0000  0.0000  0.0000  0.0000
                                            0.0000  0.0000  0.0000  0.0000  0.0000
                                            0.0000  0.0000  0.0000  0.0000  0.0000
                                            0.0000  0.0000  0.0000  0.0000  0.0000
                                            0.0000  0.0000
     8. (1.00000) LP ( 3)Cl   1           s(  0.00%)p 1.00(100.00%)
                                            0.0000  0.0000  0.0000  0.0000  0.0000
                                            0.0000  0.0000  0.0000  0.0000  0.0000
                                            1.0000  0.0000  0.0000  0.0000  0.0000
                                            0.0000  0.0000  0.0000  0.0000  0.0000
                                            0.0000  0.0000  0.0000  0.0000  0.0000
                                            0.0000  0.0000
     9. (1.00000) LP ( 4)Cl   1           s(  0.00%)p 1.00(100.00%)
                                            0.0000  0.0000  0.0000  0.0000  0.0000
                                            0.0000  0.0000  0.0000  0.0000  0.0000
                                            0.0000  0.0000  0.0000  0.0000  1.0000
                                            0.0000  0.0000  0.0000  0.0000  0.0000
                                            0.0000  0.0000  0.0000  0.0000  0.0000
                                            0.0000  0.0000
    10. (0.00000) RY*( 1)Cl   1           s(100.00%)
    11. (0.00000) RY*( 2)Cl   1           s(100.00%)
    12. (0.00000) RY*( 3)Cl   1           s(  0.00%)p 1.00(100.00%)
    13. (0.00000) RY*( 4)Cl   1           s(  0.00%)p 1.00(100.00%)
    14. (0.00000) RY*( 5)Cl   1           s(  0.00%)p 1.00(100.00%)
    15. (0.00000) RY*( 6)Cl   1           s(  0.00%)p 1.00(100.00%)
    16. (0.00000) RY*( 7)Cl   1           s(  0.00%)p 1.00(100.00%)
    17. (0.00000) RY*( 8)Cl   1           s(  0.00%)p 1.00(100.00%)
    18. (0.00000) RY*( 9)Cl   1           s(  0.00%)p 0.00(  0.00%)d 1.00(100.00%)
    19. (0.00000) RY*(10)Cl   1           s(  0.00%)p 0.00(  0.00%)d 1.00(100.00%)
    20. (0.00000) RY*(11)Cl   1           s(  0.00%)p 0.00(  0.00%)d 1.00(100.00%)
    21. (0.00000) RY*(12)Cl   1           s(  0.00%)p 0.00(  0.00%)d 1.00(100.00%)
    22. (0.00000) RY*(13)Cl   1           s(  0.00%)p 0.00(  0.00%)d 1.00(100.00%)
    23. (0.00000) RY*(14)Cl   1           s(  0.00%)p 0.00(  0.00%)d 1.00(100.00%)
    24. (0.00000) RY*(15)Cl   1           s(  0.00%)p 0.00(  0.00%)d 1.00(100.00%)
    25. (0.00000) RY*(16)Cl   1           s(  0.00%)p 0.00(  0.00%)d 1.00(100.00%)
    26. (0.00000) RY*(17)Cl   1           s(  0.00%)p 0.00(  0.00%)d 1.00(100.00%)
    27. (0.00000) RY*(18)Cl   1           s(  0.00%)p 0.00(  0.00%)d 1.00(100.00%)


 NHO Directionality and "Bond Bending" (deviations from line of nuclear centers)

         [Thresholds for printing:  angular deviation  >  1.0 degree]
                                    hybrid p-character > 25.0%
                                    orbital occupancy  >  0.10e

                                Line of Centers        Hybrid 1              Hybrid 2
                                ---------------  -------------------   ------------------
                NBO               Theta   Phi    Theta   Phi    Dev    Theta   Phi    Dev
 ========================================================================================
     7. LP (   2)Cl   1             --     --     90.0    0.0   --       --     --    --
     8. LP (   3)Cl   1             --     --     90.0   90.0   --       --     --    --
     9. LP (   4)Cl   1             --     --      0.0    0.0   --       --     --    --


 Second Order Perturbation Theory Analysis of Fock Matrix in NBO Basis

     Threshold for printing:   0.25 kcal/mol
                                                                              E(2)  E(j)-E(i) F(i,j)
         Donor NBO (i)                     Acceptor NBO (j)                 kcal/mol   a.u.    a.u. 
 ===================================================================================================

 within unit  1
       None above threshold


 Natural Bond Orbitals (Summary):

                                                            Principal Delocalizations
           NBO                        Occupancy    Energy   (geminal,vicinal,remote)
 ====================================================================================
 Molecular unit  1  (Cl)
     1. CR (   1)Cl   1                  1.00000   -10.51941   
     2. CR (   2)Cl   1                  1.00000    -5.63506   
     3. CR (   3)Cl   1                  1.00000    -6.43275   
     4. CR (   4)Cl   1                  1.00000    -6.43275   
     5. CR (   5)Cl   1                  1.00000    -6.43275   
     6. LP (   1)Cl   1                  1.00000   -94.70050   
     7. LP (   2)Cl   1                  1.00000    -0.49622   
     8. LP (   3)Cl   1                  1.00000    -0.49622   
     9. LP (   4)Cl   1                  1.00000    -0.49622   
    10. RY*(   1)Cl   1                  0.00000     1.12021   
    11. RY*(   2)Cl   1                  0.00000     0.32609   
    12. RY*(   3)Cl   1                  0.00000     0.95336   
    13. RY*(   4)Cl   1                  0.00000     0.25739   
    14. RY*(   5)Cl   1                  0.00000     0.95336   
    15. RY*(   6)Cl   1                  0.00000     0.25739   
    16. RY*(   7)Cl   1                  0.00000     0.95336   
    17. RY*(   8)Cl   1                  0.00000     0.25739   
    18. RY*(   9)Cl   1                  0.00000     1.40491   
    19. RY*(  10)Cl   1                  0.00000     0.59708   
    20. RY*(  11)Cl   1                  0.00000     1.40491   
    21. RY*(  12)Cl   1                  0.00000     0.59708   
    22. RY*(  13)Cl   1                  0.00000     1.40491   
    23. RY*(  14)Cl   1                  0.00000     0.59708   
    24. RY*(  15)Cl   1                  0.00000     1.40491   
    25. RY*(  16)Cl   1                  0.00000     0.59708   
    26. RY*(  17)Cl   1                  0.00000     1.40491   
    27. RY*(  18)Cl   1                  0.00000     0.59708   
       -------------------------------
              Total Lewis    9.00000  (100.0000%)
        Valence non-Lewis    0.00000  (  0.0000%)
        Rydberg non-Lewis   -0.00000  ( -0.0000%)
       -------------------------------
            Total unit  1    9.00000  (100.0000%)
           Charge unit  1   -0.50000


 ***************************************************
 *******         Beta  spin orbitals         *******
 ***************************************************


 NATURAL POPULATIONS:  Natural atomic orbital occupancies 
                                                          
   NAO  Atom  No  lang   Type(AO)    Occupancy      Energy
 ----------------------------------------------------------
     1   Cl    1  S      Cor( 2S)     1.00000     -10.51941
     2   Cl    1  S      Cor( 3S)     1.00000      -5.63506
     3   Cl    1  S      Val( 1S)     1.00000     -94.70050
     4   Cl    1  S      Ryd( 5S)     0.00000       1.12021
     5   Cl    1  S      Ryd( 4S)     0.00000       0.32609
     6   Cl    1  px     Cor( 2p)     1.00000      -6.43275
     7   Cl    1  px     Val( 3p)     1.00000      -0.49622
     8   Cl    1  px     Ryd( 5p)     0.00000       0.95336
     9   Cl    1  px     Ryd( 4p)     0.00000       0.25739
    10   Cl    1  py     Cor( 2p)     1.00000      -6.43275
    11   Cl    1  py     Val( 3p)     1.00000      -0.49622
    12   Cl    1  py     Ryd( 5p)     0.00000       0.95336
    13   Cl    1  py     Ryd( 4p)     0.00000       0.25739
    14   Cl    1  pz     Cor( 2p)     1.00000      -6.43275
    15   Cl    1  pz     Val( 3p)     1.00000      -0.49622
    16   Cl    1  pz     Ryd( 5p)     0.00000       0.95336
    17   Cl    1  pz     Ryd( 4p)     0.00000       0.25739
    18   Cl    1  dxy    Ryd( 4d)     0.00000       1.40491
    19   Cl    1  dxy    Ryd( 3d)     0.00000       0.59708
    20   Cl    1  dxz    Ryd( 4d)     0.00000       1.40491
    21   Cl    1  dxz    Ryd( 3d)     0.00000       0.59708
    22   Cl    1  dyz    Ryd( 4d)     0.00000       1.40491
    23   Cl    1  dyz    Ryd( 3d)     0.00000       0.59708
    24   Cl    1  dx2y2  Ryd( 4d)     0.00000       1.40491
    25   Cl    1  dx2y2  Ryd( 3d)     0.00000       0.59708
    26   Cl    1  dz2    Ryd( 4d)     0.00000       1.40491
    27   Cl    1  dz2    Ryd( 3d)     0.00000       0.59708

 WARNING:  Population inversion found on atom Cl    1


 Summary of Natural Population Analysis:                  
                                                          
                                       Natural Population 
                Natural  -----------------------------------------------
    Atom  No    Charge         Core      Valence    Rydberg      Total
 -----------------------------------------------------------------------
     Cl    1   -0.50000      5.00000     4.00000    0.00000     9.00000
 =======================================================================
   * Total *   -0.50000      5.00000     4.00000    0.00000     9.00000

                                 Natural Population      
 --------------------------------------------------------
   Core                       5.00000 (100.0000% of   5)
   Valence                    4.00000 (100.0000% of   4)
   Natural Minimal Basis      9.00000 (100.0000% of   9)
   Natural Rydberg Basis      0.00000 (  0.0000% of   9)
 --------------------------------------------------------

    Atom  No          Natural Electron Configuration
 ----------------------------------------------------------------------------
     Cl    1      [core]3p( 3.00)


 Wiberg bond index matrix in the NAO basis:                                    

     Atom    1
     ---- ------
   1. Cl  0.0000


 Wiberg bond index, Totals by atom:                                            

     Atom    1
     ---- ------
   1. Cl  0.0000


 Atom-atom overlap-weighted NAO bond order:                                    

     Atom    1
     ---- ------
   1. Cl  0.0000


 Atom-atom overlap-weighted NAO bond order, Totals by atom:                    

     Atom    1
     ---- ------
   1. Cl  0.0000


 MO bond order:                                                                

     Atom    1
     ---- ------
   1. Cl  0.0000


 MO atomic valencies:                                                          

     Atom    1
     ---- ------
   1. Cl  0.0000


 NATURAL BOND ORBITAL ANALYSIS, beta spin orbitals:

                       Occupancies       Lewis Structure    Low   High
           Occ.    -------------------  -----------------   occ   occ
  Cycle   Thresh.   Lewis   Non-Lewis     CR  BD  3C  LP    (L)   (NL)   Dev
 =============================================================================
   1(1)    0.90     9.00000  -0.00000      5   0   0   4     0      0    0.00
 -----------------------------------------------------------------------------

 Structure accepted: No low occupancy Lewis orbitals

 --------------------------------------------------------
   Core                      5.00000 (100.000% of   5)
   Valence Lewis             4.00000 (100.000% of   4)
  ==================       ============================
   Total Lewis               9.00000 (100.000% of   9)
  -----------------------------------------------------
   Valence non-Lewis         0.00000 (  0.000% of   9)
   Rydberg non-Lewis        -0.00000 ( -0.000% of   9)
  ==================       ============================
   Total non-Lewis          -0.00000 ( -0.000% of   9)
 --------------------------------------------------------


       (Occupancy)   Bond orbital/ Coefficients/ Hybrids
 ---------------------------------------------------------------------------------
     1. (1.00000) CR ( 1)Cl   1           s(100.00%)
                                            1.0000  0.0000  0.0000  0.0000  0.0000
                                            0.0000  0.0000  0.0000  0.0000  0.0000
                                            0.0000  0.0000  0.0000  0.0000  0.0000
                                            0.0000  0.0000  0.0000  0.0000  0.0000
                                            0.0000  0.0000  0.0000  0.0000  0.0000
                                            0.0000  0.0000
     2. (1.00000) CR ( 2)Cl   1           s(100.00%)
                                            0.0000  1.0000  0.0000  0.0000  0.0000
                                            0.0000  0.0000  0.0000  0.0000  0.0000
                                            0.0000  0.0000  0.0000  0.0000  0.0000
                                            0.0000  0.0000  0.0000  0.0000  0.0000
                                            0.0000  0.0000  0.0000  0.0000  0.0000
                                            0.0000  0.0000
     3. (1.00000) CR ( 3)Cl   1           s(  0.00%)p 1.00(100.00%)
                                            0.0000  0.0000  0.0000  0.0000  0.0000
                                            1.0000  0.0000  0.0000  0.0000  0.0000
                                            0.0000  0.0000  0.0000  0.0000  0.0000
                                            0.0000  0.0000  0.0000  0.0000  0.0000
                                            0.0000  0.0000  0.0000  0.0000  0.0000
                                            0.0000  0.0000
     4. (1.00000) CR ( 4)Cl   1           s(  0.00%)p 1.00(100.00%)
                                            0.0000  0.0000  0.0000  0.0000  0.0000
                                            0.0000  0.0000  0.0000  0.0000  1.0000
                                            0.0000  0.0000  0.0000  0.0000  0.0000
                                            0.0000  0.0000  0.0000  0.0000  0.0000
                                            0.0000  0.0000  0.0000  0.0000  0.0000
                                            0.0000  0.0000
     5. (1.00000) CR ( 5)Cl   1           s(  0.00%)p 1.00(100.00%)
                                            0.0000  0.0000  0.0000  0.0000  0.0000
                                            0.0000  0.0000  0.0000  0.0000  0.0000
                                            0.0000  0.0000  0.0000  1.0000  0.0000
                                            0.0000  0.0000  0.0000  0.0000  0.0000
                                            0.0000  0.0000  0.0000  0.0000  0.0000
                                            0.0000  0.0000
     6. (1.00000) LP ( 1)Cl   1           s(100.00%)
                                            0.0000  0.0000  1.0000  0.0000  0.0000
                                            0.0000  0.0000  0.0000  0.0000  0.0000
                                            0.0000  0.0000  0.0000  0.0000  0.0000
                                            0.0000  0.0000  0.0000  0.0000  0.0000
                                            0.0000  0.0000  0.0000  0.0000  0.0000
                                            0.0000  0.0000
     7. (1.00000) LP ( 2)Cl   1           s(  0.00%)p 1.00(100.00%)
                                            0.0000  0.0000  0.0000  0.0000  0.0000
                                            0.0000  1.0000  0.0000  0.0000  0.0000
                                            0.0000  0.0000  0.0000  0.0000  0.0000
                                            0.0000  0.0000  0.0000  0.0000  0.0000
                                            0.0000  0.0000  0.0000  0.0000  0.0000
                                            0.0000  0.0000
     8. (1.00000) LP ( 3)Cl   1           s(  0.00%)p 1.00(100.00%)
                                            0.0000  0.0000  0.0000  0.0000  0.0000
                                            0.0000  0.0000  0.0000  0.0000  0.0000
                                            1.0000  0.0000  0.0000  0.0000  0.0000
                                            0.0000  0.0000  0.0000  0.0000  0.0000
                                            0.0000  0.0000  0.0000  0.0000  0.0000
                                            0.0000  0.0000
     9. (1.00000) LP ( 4)Cl   1           s(  0.00%)p 1.00(100.00%)
                                            0.0000  0.0000  0.0000  0.0000  0.0000
                                            0.0000  0.0000  0.0000  0.0000  0.0000
                                            0.0000  0.0000  0.0000  0.0000  1.0000
                                            0.0000  0.0000  0.0000  0.0000  0.0000
                                            0.0000  0.0000  0.0000  0.0000  0.0000
                                            0.0000  0.0000
    10. (0.00000) RY*( 1)Cl   1           s(100.00%)
    11. (0.00000) RY*( 2)Cl   1           s(100.00%)
    12. (0.00000) RY*( 3)Cl   1           s(  0.00%)p 1.00(100.00%)
    13. (0.00000) RY*( 4)Cl   1           s(  0.00%)p 1.00(100.00%)
    14. (0.00000) RY*( 5)Cl   1           s(  0.00%)p 1.00(100.00%)
    15. (0.00000) RY*( 6)Cl   1           s(  0.00%)p 1.00(100.00%)
    16. (0.00000) RY*( 7)Cl   1           s(  0.00%)p 1.00(100.00%)
    17. (0.00000) RY*( 8)Cl   1           s(  0.00%)p 1.00(100.00%)
    18. (0.00000) RY*( 9)Cl   1           s(  0.00%)p 0.00(  0.00%)d 1.00(100.00%)
    19. (0.00000) RY*(10)Cl   1           s(  0.00%)p 0.00(  0.00%)d 1.00(100.00%)
    20. (0.00000) RY*(11)Cl   1           s(  0.00%)p 0.00(  0.00%)d 1.00(100.00%)
    21. (0.00000) RY*(12)Cl   1           s(  0.00%)p 0.00(  0.00%)d 1.00(100.00%)
    22. (0.00000) RY*(13)Cl   1           s(  0.00%)p 0.00(  0.00%)d 1.00(100.00%)
    23. (0.00000) RY*(14)Cl   1           s(  0.00%)p 0.00(  0.00%)d 1.00(100.00%)
    24. (0.00000) RY*(15)Cl   1           s(  0.00%)p 0.00(  0.00%)d 1.00(100.00%)
    25. (0.00000) RY*(16)Cl   1           s(  0.00%)p 0.00(  0.00%)d 1.00(100.00%)
    26. (0.00000) RY*(17)Cl   1           s(  0.00%)p 0.00(  0.00%)d 1.00(100.00%)
    27. (0.00000) RY*(18)Cl   1           s(  0.00%)p 0.00(  0.00%)d 1.00(100.00%)


 NHO Directionality and "Bond Bending" (deviations from line of nuclear centers)

         [Thresholds for printing:  angular deviation  >  1.0 degree]
                                    hybrid p-character > 25.0%
                                    orbital occupancy  >  0.10e

                                Line of Centers        Hybrid 1              Hybrid 2
                                ---------------  -------------------   ------------------
                NBO               Theta   Phi    Theta   Phi    Dev    Theta   Phi    Dev
 ========================================================================================
     7. LP (   2)Cl   1             --     --     90.0    0.0   --       --     --    --
     8. LP (   3)Cl   1             --     --     90.0   90.0   --       --     --    --
     9. LP (   4)Cl   1             --     --      0.0    0.0   --       --     --    --


 Second Order Perturbation Theory Analysis of Fock Matrix in NBO Basis

     Threshold for printing:   0.25 kcal/mol
                                                                              E(2)  E(j)-E(i) F(i,j)
         Donor NBO (i)                     Acceptor NBO (j)                 kcal/mol   a.u.    a.u. 
 ===================================================================================================

 within unit  1
       None above threshold


 Natural Bond Orbitals (Summary):

                                                            Principal Delocalizations
           NBO                        Occupancy    Energy   (geminal,vicinal,remote)
 ====================================================================================
 Molecular unit  1  (Cl)
     1. CR (   1)Cl   1                  1.00000   -10.51941   
     2. CR (   2)Cl   1                  1.00000    -5.63506   
     3. CR (   3)Cl   1                  1.00000    -6.43275   
     4. CR (   4)Cl   1                  1.00000    -6.43275   
     5. CR (   5)Cl   1                  1.00000    -6.43275   
     6. LP (   1)Cl   1                  1.00000   -94.70050   
     7. LP (   2)Cl   1                  1.00000    -0.49622   
     8. LP (   3)Cl   1                  1.00000    -0.49622   
     9. LP (   4)Cl   1                  1.00000    -0.49622   
    10. RY*(   1)Cl   1                  0.00000     1.12021   
    11. RY*(   2)Cl   1                  0.00000     0.32609   
    12. RY*(   3)Cl   1                  0.00000     0.95336   
    13. RY*(   4)Cl   1                  0.00000     0.25739   
    14. RY*(   5)Cl   1                  0.00000     0.95336   
    15. RY*(   6)Cl   1                  0.00000     0.25739   
    16. RY*(   7)Cl   1                  0.00000     0.95336   
    17. RY*(   8)Cl   1                  0.00000     0.25739   
    18. RY*(   9)Cl   1                  0.00000     1.40491   
    19. RY*(  10)Cl   1                  0.00000     0.59708   
    20. RY*(  11)Cl   1                  0.00000     1.40491   
    21. RY*(  12)Cl   1                  0.00000     0.59708   
    22. RY*(  13)Cl   1                  0.00000     1.40491   
    23. RY*(  14)Cl   1                  0.00000     0.59708   
    24. RY*(  15)Cl   1                  0.00000     1.40491   
    25. RY*(  16)Cl   1                  0.00000     0.59708   
    26. RY*(  17)Cl   1                  0.00000     1.40491   
    27. RY*(  18)Cl   1                  0.00000     0.59708   
       -------------------------------
              Total Lewis    9.00000  (100.0000%)
        Valence non-Lewis    0.00000  (  0.0000%)
        Rydberg non-Lewis   -0.00000  ( -0.0000%)
       -------------------------------
            Total unit  1    9.00000  (100.0000%)
           Charge unit  1   -0.50000
 Leave Link  607 at Sat Aug  1 13:47:52 2020, MaxMem=   524288000 cpu:               1.9 elap:               0.3
 (Enter /home/ubuntu/g16/l701.exe)
 ... and contract with generalized density number  0.
 Compute integral first derivatives.
 Leave Link  701 at Sat Aug  1 13:47:52 2020, MaxMem=   524288000 cpu:               1.1 elap:               0.2
 (Enter /home/ubuntu/g16/l702.exe)
 L702 exits ... SP integral derivatives will be done elsewhere.
 Leave Link  702 at Sat Aug  1 13:47:52 2020, MaxMem=   524288000 cpu:               0.2 elap:               0.0
 (Enter /home/ubuntu/g16/l703.exe)
 Integral derivatives from FoFJK, PRISM(SPDF).
 Compute integral first derivatives, UseDBF=F ICtDFT=           0.
 Calling FoFJK, ICntrl=      2127 FMM=F ISym2X=1 I1Cent= 0 IOpClX= 1 NMat=1 NMatS=1 NMatT=0.
 FoFJK:  IHMeth= 1 ICntrl=    2127 DoSepK=F KAlg= 0 I1Cent=           0 FoldK=F
 IRaf=         0 NMat=       1 IRICut=       1 DoRegI=T DoRafI=F ISym2E= 1 IDoP0=0 IntGTp=1.
 FoFCou: FMM=F IPFlag=           0 FMFlag=      100000 FMFlg1=         800
         NFxFlg=           0 DoJE=F BraDBF=F KetDBF=F FulRan=T
         wScrn=  0.000000 ICntrl=      2127 IOpCl=  1 I1Cent=           0 NGrid=           0
         NMat0=    1 NMatS0=      1 NMatT0=    0 NMatD0=    1 NMtDS0=    0 NMtDT0=    0
 Petite list used in FoFCou.
 Leave Link  703 at Sat Aug  1 13:47:52 2020, MaxMem=   524288000 cpu:               1.6 elap:               0.2
 (Enter /home/ubuntu/g16/l716.exe)
 Dipole        = 0.00000000D+00 0.00000000D+00 0.00000000D+00
 ***** Axes restored to original set *****
 -------------------------------------------------------------------
 Center     Atomic                   Forces (Hartrees/Bohr)
 Number     Number              X              Y              Z
 -------------------------------------------------------------------
      1       17          -0.000000000   -0.000000000   -0.000000000
 -------------------------------------------------------------------
 Cartesian Forces:  Max     0.000000000 RMS     0.000000000
 Z-matrix is all fixed cartesians, so copy forces.
 Leave Link  716 at Sat Aug  1 13:47:52 2020, MaxMem=   524288000 cpu:               0.2 elap:               0.0
 (Enter /home/ubuntu/g16/l103.exe)

 GradGradGradGradGradGradGradGradGradGradGradGradGradGradGradGradGradGrad
 Berny optimization.
 Search for a local minimum.
 Step number   1 out of a maximum of  100
 All quantities printed in internal units (Hartrees-Bohrs-Radians)
 RMS Force = .00000D+00 SwitMx=.10000D-02 MixMth= 2
 Mixed Optimization -- En-DIIS/RFO-DIIS
 Second derivative matrix not updated -- first step.
 The second derivative matrix:
                          X1        Y1        Z1
           X1           0.00000
           Y1           0.00000   0.00000
           Z1           0.00000   0.00000   0.00000
 ITU=  0
     Eigenvalues --- 
 RFO step:  Lambda=-1.41268366D+00 EMin=-1.41268366D+00
 Mixed    0 eigenvectors in step.  Raw Step.Grad=  0.00D+00.
 RFO eigenvector is Hessian eigenvector with negative curvature.
 Taking step of  0.00D+00 in eigenvector direction(s).  Step.Grad= -0.00D+00.
 ClnCor:  largest displacement from symmetrization is 0.00D+00 for atom     0.
 Linear search not attempted -- first point.
 ClnCor:  largest displacement from symmetrization is 0.00D+00 for atom     0.
 B after Tr=     0.000000    0.000000    0.000000
         Rot=    1.000000    0.000000    0.000000    0.000000 Ang=   0.00 deg.
 Variable       Old X    -DE/DX   Delta X   Delta X   Delta X     New X
                                 (Linear)    (Quad)   (Total)
    X1       -1.41268  -0.00000   0.00000   0.00000   0.00000  -1.41268
    Y1       -0.99721  -0.00000   0.00000   0.00000   0.00000  -0.99721
    Z1        0.00756  -0.00000   0.00000   0.00000   0.00000   0.00756
         Item               Value     Threshold  Converged?
 Maximum Force            0.000000     0.000450     YES
 RMS     Force            0.000000     0.000300     YES
 Maximum Displacement     0.000000     0.001800     YES
 RMS     Displacement     0.000000     0.001200     YES
 Predicted change in Energy=-0.000000D+00
 Lowest energy point so far.  Saving SCF results.
 GradGradGradGradGradGradGradGradGradGradGradGradGradGradGradGradGradGrad

 Leave Link  103 at Sat Aug  1 13:47:52 2020, MaxMem=   524288000 cpu:               0.2 elap:               0.0
 (Enter /home/ubuntu/g16/l202.exe)
                          Input orientation:                          
 ---------------------------------------------------------------------
 Center     Atomic      Atomic             Coordinates (Angstroms)
 Number     Number       Type             X           Y           Z
 ---------------------------------------------------------------------
      1         17           0       -0.747560   -0.527700    0.004000
 ---------------------------------------------------------------------
 Stoichiometry    Cl(1-)
 Framework group  OH[O(Cl)]
 Deg. of freedom     0
 Full point group                 OH      NOp  48
 RotChk:  IX=0 Diff= 0.00D+00
 Largest Abelian subgroup         D2H     NOp   8
 Largest concise Abelian subgroup C1      NOp   1
                         Standard orientation:                         
 ---------------------------------------------------------------------
 Center     Atomic      Atomic             Coordinates (Angstroms)
 Number     Number       Type             X           Y           Z
 ---------------------------------------------------------------------
[...]
   1(1)    0.90     9.00000   0.00000      5   0   0   4     0      0    0.00
 -----------------------------------------------------------------------------

 Structure accepted: No low occupancy Lewis orbitals

 --------------------------------------------------------
   Core                      5.00000 (100.000% of   5)
   Valence Lewis             4.00000 (100.000% of   4)
  ==================       ============================
   Total Lewis               9.00000 (100.000% of   9)
  -----------------------------------------------------
   Valence non-Lewis         0.00000 (  0.000% of   9)
   Rydberg non-Lewis         0.00000 (  0.000% of   9)
  ==================       ============================
   Total non-Lewis           0.00000 (  0.000% of   9)
 --------------------------------------------------------


       (Occupancy)   Bond orbital/ Coefficients/ Hybrids
 ---------------------------------------------------------------------------------
     1. (1.00000) CR ( 1)Cl   1           s(100.00%)
                                            1.0000  0.0000  0.0000  0.0000  0.0000
                                            0.0000  0.0000  0.0000  0.0000  0.0000
                                            0.0000  0.0000  0.0000  0.0000  0.0000
                                            0.0000  0.0000  0.0000  0.0000  0.0000
                                            0.0000  0.0000  0.0000  0.0000  0.0000
                                            0.0000  0.0000
     2. (1.00000) CR ( 2)Cl   1           s(100.00%)
                                            0.0000  1.0000  0.0000  0.0000  0.0000
                                            0.0000  0.0000  0.0000  0.0000  0.0000
                                            0.0000  0.0000  0.0000  0.0000  0.0000
                                            0.0000  0.0000  0.0000  0.0000  0.0000
                                            0.0000  0.0000  0.0000  0.0000  0.0000
                                            0.0000  0.0000
     3. (1.00000) CR ( 3)Cl   1           s(  0.00%)p 1.00(100.00%)
                                            0.0000  0.0000  0.0000  0.0000  0.0000
                                            1.0000  0.0000  0.0000  0.0000  0.0000
                                            0.0000  0.0000  0.0000  0.0000  0.0000
                                            0.0000  0.0000  0.0000  0.0000  0.0000
                                            0.0000  0.0000  0.0000  0.0000  0.0000
                                            0.0000  0.0000
     4. (1.00000) CR ( 4)Cl   1           s(  0.00%)p 1.00(100.00%)
                                            0.0000  0.0000  0.0000  0.0000  0.0000
                                            0.0000  0.0000  0.0000  0.0000  0.0000
                                            1.0000  0.0000  0.0000  0.0000  0.0000
                                            0.0000  0.0000  0.0000  0.0000  0.0000
                                            0.0000  0.0000  0.0000  0.0000  0.0000
                                            0.0000  0.0000
     5. (1.00000) CR ( 5)Cl   1           s(  0.00%)p 1.00(100.00%)
                                            0.0000  0.0000  0.0000  0.0000  0.0000
                                            0.0000  0.0000  0.0000  0.0000  0.0000
                                            0.0000  0.0000  0.0000  1.0000  0.0000
                                            0.0000  0.0000  0.0000  0.0000  0.0000
                                            0.0000  0.0000  0.0000  0.0000  0.0000
                                            0.0000  0.0000
     6. (1.00000) LP ( 1)Cl   1           s(100.00%)
                                            0.0000  0.0000  1.0000  0.0000  0.0000
                                            0.0000  0.0000  0.0000  0.0000  0.0000
                                            0.0000  0.0000  0.0000  0.0000  0.0000
                                            0.0000  0.0000  0.0000  0.0000  0.0000
                                            0.0000  0.0000  0.0000  0.0000  0.0000
                                            0.0000  0.0000
     7. (1.00000) LP ( 2)Cl   1           s(  0.00%)p 1.00(100.00%)
                                            0.0000  0.0000  0.0000  0.0000  0.0000
                                            0.0000  1.0000  0.0000  0.0000  0.0000
                                            0.0000  0.0000  0.0000  0.0000  0.0000
                                            0.0000  0.0000  0.0000  0.0000  0.0000
                                            0.0000  0.0000  0.0000  0.0000  0.0000
                                            0.0000  0.0000
     8. (1.00000) LP ( 3)Cl   1           s(  0.00%)p 1.00(100.00%)
                                            0.0000  0.0000  0.0000  0.0000  0.0000
                                            0.0000  0.0000  0.0000  0.0000  1.0000
                                            0.0000  0.0000  0.0000  0.0000  0.0000
                                            0.0000  0.0000  0.0000  0.0000  0.0000
                                            0.0000  0.0000  0.0000  0.0000  0.0000
                                            0.0000  0.0000
     9. (1.00000) LP ( 4)Cl   1           s(  0.00%)p 1.00(100.00%)
                                            0.0000  0.0000  0.0000  0.0000  0.0000
                                            0.0000  0.0000  0.0000  0.0000  0.0000
                                            0.0000  0.0000  0.0000  0.0000  1.0000
                                            0.0000  0.0000  0.0000  0.0000  0.0000
                                            0.0000  0.0000  0.0000  0.0000  0.0000
                                            0.0000  0.0000
    10. (0.00000) RY*( 1)Cl   1           s(100.00%)
    11. (0.00000) RY*( 2)Cl   1           s(100.00%)
    12. (0.00000) RY*( 3)Cl   1           s(  0.00%)p 1.00(100.00%)
    13. (0.00000) RY*( 4)Cl   1           s(  0.00%)p 1.00(100.00%)
    14. (0.00000) RY*( 5)Cl   1           s(  0.00%)p 1.00(100.00%)
    15. (0.00000) RY*( 6)Cl   1           s(  0.00%)p 1.00(100.00%)
    16. (0.00000) RY*( 7)Cl   1           s(  0.00%)p 1.00(100.00%)
    17. (0.00000) RY*( 8)Cl   1           s(  0.00%)p 1.00(100.00%)
    18. (0.00000) RY*( 9)Cl   1           s(  0.00%)p 0.00(  0.00%)d 1.00(100.00%)
    19. (0.00000) RY*(10)Cl   1           s(  0.00%)p 0.00(  0.00%)d 1.00(100.00%)
    20. (0.00000) RY*(11)Cl   1           s(  0.00%)p 0.00(  0.00%)d 1.00(100.00%)
    21. (0.00000) RY*(12)Cl   1           s(  0.00%)p 0.00(  0.00%)d 1.00(100.00%)
    22. (0.00000) RY*(13)Cl   1           s(  0.00%)p 0.00(  0.00%)d 1.00(100.00%)
    23. (0.00000) RY*(14)Cl   1           s(  0.00%)p 0.00(  0.00%)d 1.00(100.00%)
    24. (0.00000) RY*(15)Cl   1           s(  0.00%)p 0.00(  0.00%)d 1.00(100.00%)
    25. (0.00000) RY*(16)Cl   1           s(  0.00%)p 0.00(  0.00%)d 1.00(100.00%)
    26. (0.00000) RY*(17)Cl   1           s(  0.00%)p 0.00(  0.00%)d 1.00(100.00%)
    27. (0.00000) RY*(18)Cl   1           s(  0.00%)p 0.00(  0.00%)d 1.00(100.00%)


 NHO Directionality and "Bond Bending" (deviations from line of nuclear centers)

         [Thresholds for printing:  angular deviation  >  1.0 degree]
                                    hybrid p-character > 25.0%
                                    orbital occupancy  >  0.10e

                                Line of Centers        Hybrid 1              Hybrid 2
                                ---------------  -------------------   ------------------
                NBO               Theta   Phi    Theta   Phi    Dev    Theta   Phi    Dev
 ========================================================================================
     7. LP (   2)Cl   1             --     --     90.0    0.0   --       --     --    --
     8. LP (   3)Cl   1             --     --     90.0   90.0   --       --     --    --
     9. LP (   4)Cl   1             --     --      0.0    0.0   --       --     --    --


 Second Order Perturbation Theory Analysis of Fock Matrix in NBO Basis

     Threshold for printing:   0.25 kcal/mol
                                                                              E(2)  E(j)-E(i) F(i,j)
         Donor NBO (i)                     Acceptor NBO (j)                 kcal/mol   a.u.    a.u. 
 ===================================================================================================

 within unit  1
       None above threshold


 Natural Bond Orbitals (Summary):

                                                            Principal Delocalizations
           NBO                        Occupancy    Energy   (geminal,vicinal,remote)
 ====================================================================================
 Molecular unit  1  (Cl)
     1. CR (   1)Cl   1                  1.00000    -5.99040   
     2. CR (   2)Cl   1                  1.00000   -25.89428   
     3. CR (   3)Cl   1                  1.00000    -6.55719   
     4. CR (   4)Cl   1                  1.00000    -0.37178   
     5. CR (   5)Cl   1                  1.00000    -6.55719   
     6. LP (   1)Cl   1                  1.00000   -78.97029   
     7. LP (   2)Cl   1                  1.00000    -0.37178   
     8. LP (   3)Cl   1                  1.00000    -6.55719   
     9. LP (   4)Cl   1                  1.00000    -0.37178   
    10. RY*(   1)Cl   1                  0.00000     0.25867   
    11. RY*(   2)Cl   1                  0.00000     1.18763   
    12. RY*(   3)Cl   1                  0.00000     0.93532   
    13. RY*(   4)Cl   1                  0.00000     0.27542   
    14. RY*(   5)Cl   1                  0.00000     0.93532   
    15. RY*(   6)Cl   1                  0.00000     0.27542   
    16. RY*(   7)Cl   1                  0.00000     0.93532   
    17. RY*(   8)Cl   1                  0.00000     0.27542   
    18. RY*(   9)Cl   1                  0.00000     1.33697   
    19. RY*(  10)Cl   1                  0.00000     0.66503   
    20. RY*(  11)Cl   1                  0.00000     1.33697   
    21. RY*(  12)Cl   1                  0.00000     0.66503   
    22. RY*(  13)Cl   1                  0.00000     1.33697   
    23. RY*(  14)Cl   1                  0.00000     0.66503   
    24. RY*(  15)Cl   1                  0.00000     1.33697   
    25. RY*(  16)Cl   1                  0.00000     0.66503   
    26. RY*(  17)Cl   1                  0.00000     1.33697   
    27. RY*(  18)Cl   1                  0.00000     0.66503   
       -------------------------------
              Total Lewis    9.00000  (100.0000%)
        Valence non-Lewis    0.00000  (  0.0000%)
        Rydberg non-Lewis    0.00000  (  0.0000%)
       -------------------------------
            Total unit  1    9.00000  (100.0000%)
           Charge unit  1   -0.50000
 Leave Link  607 at Sat Aug  1 13:47:56 2020, MaxMem=   524288000 cpu:               1.9 elap:               0.3
 (Enter /home/ubuntu/g16/l701.exe)
 ... and contract with generalized density number  0.
 Compute integral second derivatives.
 Leave Link  701 at Sat Aug  1 13:47:56 2020, MaxMem=   524288000 cpu:               1.2 elap:               0.2
 (Enter /home/ubuntu/g16/l702.exe)
 L702 exits ... SP integral derivatives will be done elsewhere.
 Leave Link  702 at Sat Aug  1 13:47:56 2020, MaxMem=   524288000 cpu:               0.2 elap:               0.0
 (Enter /home/ubuntu/g16/l703.exe)
 Integral derivatives from FoFJK, PRISM(SPDF).
 Compute integral second derivatives, UseDBF=F ICtDFT=           0.
 Calling FoFJK, ICntrl=    100127 FMM=F ISym2X=1 I1Cent= 0 IOpClX= 1 NMat=1 NMatS=1 NMatT=0.
 FoFJK:  IHMeth= 1 ICntrl=  100127 DoSepK=F KAlg= 0 I1Cent=           0 FoldK=F
 IRaf=         0 NMat=       1 IRICut=       1 DoRegI=T DoRafI=F ISym2E= 1 IDoP0=0 IntGTp=1.
 FoFCou: FMM=F IPFlag=           0 FMFlag=      100000 FMFlg1=         800
         NFxFlg=           0 DoJE=F BraDBF=F KetDBF=F FulRan=T
         wScrn=  0.000000 ICntrl=    100127 IOpCl=  1 I1Cent=           0 NGrid=           0
         NMat0=    1 NMatS0=      1 NMatT0=    0 NMatD0=    1 NMtDS0=    0 NMtDT0=    0
 Petite list used in FoFCou.
 Leave Link  703 at Sat Aug  1 13:47:57 2020, MaxMem=   524288000 cpu:               2.2 elap:               0.3
 (Enter /home/ubuntu/g16/l716.exe)
 Dipole        = 0.00000000D+00 0.00000000D+00 0.00000000D+00
 Polarizability= 2.36852106D+01-1.03292089D-20 2.36852106D+01
                 9.38854823D-13-3.81345591D-25 2.36852106D+01
 Full mass-weighted force constant matrix:
 Low frequencies ---   -0.0001   -0.0001   -0.0000
 Diagonal vibrational polarizability:
        0.0000000       0.0000000       0.0000000
 Harmonic frequencies (cm**-1), IR intensities (KM/Mole), Raman scattering
 activities (A**4/AMU), depolarization ratios for plane and unpolarized
 incident light, reduced masses (AMU), force constants (mDyne/A),
 and normal coordinates:

 -------------------
 - Thermochemistry -
 -------------------
 Temperature   298.150 Kelvin.  Pressure   1.00000 Atm.
 Atom     1 has atomic number 17 and mass  34.96885
 Molecular mass:    34.96885 amu.
 Zero-point vibrational energy          0.0 (Joules/Mol)
                                    0.00000 (Kcal/Mol)
 Vibrational temperatures: 
          (Kelvin)
 
 Zero-point correction=                           0.000000 (Hartree/Particle)
 Thermal correction to Energy=                    0.001416
 Thermal correction to Enthalpy=                  0.002360
 Thermal correction to Gibbs Free Energy=        -0.015023
 Sum of electronic and zero-point Energies=           -460.298181
 Sum of electronic and thermal Energies=              -460.296764
 Sum of electronic and thermal Enthalpies=            -460.295820
 Sum of electronic and thermal Free Energies=         -460.313203
 
                     E (Thermal)             CV                S
                      KCal/Mol        Cal/Mol-Kelvin    Cal/Mol-Kelvin
 Total                    0.889              2.981             36.586
 Electronic               0.000              0.000              0.000
 Translational            0.889              2.981             36.586
 Rotational               0.000              0.000              0.000
 Vibrational              0.000              0.000              0.000
                       Q            Log10(Q)             Ln(Q)
 Total Bot       0.812786D+07          6.909976         15.910808
 Total V=0       0.812786D+07          6.909976         15.910808
 Vib (Bot)       0.100000D+01          0.000000          0.000000
 Vib (V=0)       0.100000D+01          0.000000          0.000000
 Electronic      0.100000D+01          0.000000          0.000000
 Translational   0.812786D+07          6.909976         15.910808
 Rotational      0.100000D+01          0.000000          0.000000
 ***** Axes restored to original set *****
 -------------------------------------------------------------------
 Center     Atomic                   Forces (Hartrees/Bohr)
 Number     Number              X              Y              Z
 -------------------------------------------------------------------
      1       17          -0.000000000   -0.000000000   -0.000000000
 -------------------------------------------------------------------
 Cartesian Forces:  Max     0.000000000 RMS     0.000000000
 Force constants in Cartesian coordinates: 
                1             2             3 
      1  0.000000D+00
      2  0.000000D+00  0.000000D+00
      3  0.000000D+00  0.000000D+00  0.000000D+00
 Leave Link  716 at Sat Aug  1 13:47:57 2020, MaxMem=   524288000 cpu:               0.2 elap:               0.0
 (Enter /home/ubuntu/g16/l103.exe)

 GradGradGradGradGradGradGradGradGradGradGradGradGradGradGradGradGradGrad
 Berny optimization.
 Search for a local minimum.
 Step number   1 out of a maximum of    2
 All quantities printed in internal units (Hartrees-Bohrs-Radians)
 Second derivative matrix not updated -- analytic derivatives used.
 The second derivative matrix:
                          X1        Y1        Z1
           X1          -0.00000
           Y1           0.00000  -0.00000
           Z1           0.00000   0.00000  -0.00000
 ITU=  0
     Eigenvalues --- 
 Angle between quadratic step and forces=  90.00 degrees.
 ClnCor:  largest displacement from symmetrization is 0.00D+00 for atom     0.
 Linear search not attempted -- first point.
 ClnCor:  largest displacement from symmetrization is 0.00D+00 for atom     0.
 B after Tr=     0.000000    0.000000    0.000000
         Rot=    1.000000    0.000000    0.000000    0.000000 Ang=   0.00 deg.
 Variable       Old X    -DE/DX   Delta X   Delta X   Delta X     New X
                                 (Linear)    (Quad)   (Total)
    X1       -1.41268  -0.00000   0.00000   0.00000   0.00000  -1.41268
    Y1       -0.99721  -0.00000   0.00000   0.00000   0.00000  -0.99721
    Z1        0.00756  -0.00000   0.00000   0.00000   0.00000   0.00756
         Item               Value     Threshold  Converged?
 Maximum Force            0.000000     0.000450     YES
 RMS     Force            0.000000     0.000300     YES
 Maximum Displacement     0.000000     0.001800     YES
 RMS     Displacement     0.000000     0.001200     YES
 Predicted change in Energy=-0.000000D+00
 Optimization completed.
    -- Stationary point found.
 GradGradGradGradGradGradGradGradGradGradGradGradGradGradGradGradGradGrad

 Leave Link  103 at Sat Aug  1 13:47:57 2020, MaxMem=   524288000 cpu:               0.1 elap:               0.0
 (Enter /home/ubuntu/g16/l9999.exe)
 Dipole is zero, so no output in dipole orientation.

 ----------------------------------------------------------------------

 Electric dipole moment (input orientation):
 (Debye = 10**-18 statcoulomb cm , SI units = C m)
                  (au)            (Debye)         (10**-30 SI)
   Tot        0.000000D+00      0.000000D+00      0.000000D+00
   x          0.000000D+00      0.000000D+00      0.000000D+00
   y          0.000000D+00      0.000000D+00      0.000000D+00
   z          0.000000D+00      0.000000D+00      0.000000D+00

 Dipole polarizability, Alpha (input orientation).
 (esu units = cm**3 , SI units = C**2 m**2 J**-1)
 Alpha(0;0):
               (au)            (10**-24 esu)      (10**-40 SI)
   iso        0.236852D+02      0.350979D+01      0.390516D+01
   aniso      0.000000D+00      0.000000D+00      0.000000D+00
   xx         0.236852D+02      0.350979D+01      0.390516D+01
   yx         0.000000D+00      0.000000D+00      0.000000D+00
   yy         0.236852D+02      0.350979D+01      0.390516D+01
   zx         0.000000D+00      0.000000D+00      0.000000D+00
   zy         0.000000D+00      0.000000D+00      0.000000D+00
   zz         0.236852D+02      0.350979D+01      0.390516D+01

 ----------------------------------------------------------------------
 1\1\GINC-LC06-1-2\Freq\UB3LYP\Aug-CC-pVDZ\Cl1(1-)\UBUNTU\01-Aug-2020\0
 \\#P Geom=AllCheck Guess=TCheck SCRF=Check GenChk UB3LYP/Aug-CC-pVDZ F
 req\\Cl-_UB3LYP-aug-cc-pVDZ\\-1,1\Cl,-0.74756,-0.5277,0.004\\Version=E
 S64L-G16RevA.03\State=1-A1G\HF=-460.2981807\S2=0.\S2-1=0.\S2A=0.\RMSD=
 0.000e+00\RMSF=0.000e+00\Thermal=0.0014163\Dipole=0.,0.,0.\DipoleDeriv
 =-1.,0.,0.,0.,-1.,0.,0.,0.,-1.\Polar=23.6852106,0.,23.6852106,0.,0.,23
 .6852106\Quadrupole=0.,0.,0.,0.,0.,0.\PG=OH [O(Cl1)]\NImag=0\\0.,0.,0.
 ,0.,0.,0.\\0.,0.,0.\\\@


 IT PROBABLY IS NOT POSSIBLE FOR A SCIENTIST TO INTERROGATE NATURE 
 FROM A WHOLLY DISINTERESTED VIEWPOINT.
 EVEN IF HE HAS NO PARTICULAR AXE TO GRIND, HE IS LIKELY TO HAVE 
 A DISTINCTIVE WAY OF VIEWING NATURE.

                                                   -- JOHN LOSEE
 Job cpu time:       0 days  0 hours  0 minutes 16.3 seconds.
 Elapsed time:       0 days  0 hours  0 minutes  2.6 seconds.
 File lengths (MBytes):  RWF=      6 Int=      0 D2E=      0 Chk=      1 Scr=      1
 Normal termination of Gaussian 16 at Sat Aug  1 13:47:57 2020.
