 Entering Gaussian System, Link 0=/home/ubuntu/g16/g16
 Input=F-_UB3LYP-aug-cc-pVDZ-Opt.gjf
 Output=F-_UB3LYP-aug-cc-pVDZ-Opt.log
 Initial command:
 /home/ubuntu/g16/l1.exe "/home/ubuntu/g16/Gau-7855.inp" -scrdir="/home/ubuntu/g16/"
 Entering Link 1 = /home/ubuntu/g16/l1.exe PID=      7857.
  
 Copyright (c) 1988,1990,1992,1993,1995,1998,2003,2009,2016,
            Gaussian, Inc.  All Rights Reserved.
  
 This is part of the Gaussian(R) 16 program.  It is based on
 the Gaussian(R) 09 system (copyright 2009, Gaussian, Inc.),
 the Gaussian(R) 03 system (copyright 2003, Gaussian, Inc.),
 the Gaussian(R) 98 system (copyright 1998, Gaussian, Inc.),
 the Gaussian(R) 94 system (copyright 1995, Gaussian, Inc.),
 the Gaussian 92(TM) system (copyright 1992, Gaussian, Inc.),
 the Gaussian 90(TM) system (copyright 1990, Gaussian, Inc.),
 the Gaussian 88(TM) system (copyright 1988, Gaussian, Inc.),
 the Gaussian 86(TM) system (copyright 1986, Carnegie Mellon
 University), and the Gaussian 82(TM) system (copyright 1983,
 Carnegie Mellon University). Gaussian is a federally registered
 trademark of Gaussian, Inc.
  
 This software contains proprietary and confidential information,
 including trade secrets, belonging to Gaussian, Inc.
  
 This software is provided under written license and may be
 used, copied, transmitted, or stored only in accord with that
 written license.
  
 The following legend is applicable only to US Government
 contracts under FAR:
  
                    RESTRICTED RIGHTS LEGEND
  
 Use, reproduction and disclosure by the US Government is
 subject to restrictions as set forth in subparagraphs (a)
 and (c) of the Commercial Computer Software - Restricted
 Rights clause in FAR 52.227-19.
  
 Gaussian, Inc.
 340 Quinnipiac St., Bldg. 40, Wallingford CT 06492
  
  
 ---------------------------------------------------------------
 Warning -- This program may not be used in any manner that
 competes with the business of Gaussian, Inc. or will provide
 assistance to any competitor of Gaussian, Inc.  The licensee
 of this program is prohibited from giving any competitor of
 Gaussian, Inc. access to this program.  By using this program,
 the user acknowledges that Gaussian, Inc. is engaged in the
 business of creating and licensing software in the field of
 computational chemistry and represents and warrants to the
 licensee that it is not a competitor of Gaussian, Inc. and that
 it will not use this program in any manner prohibited above.
 ---------------------------------------------------------------
  

 Cite this work as:
 Gaussian 16, Revision A.03,
 M. J. Frisch, G. W. Trucks, H. B. Schlegel, G. E. Scuseria, 
 M. A. Robb, J. R. Cheeseman, G. Scalmani, V. Barone, 
 G. A. Petersson, H. Nakatsuji, X. Li, M. Caricato, A. V. Marenich, 
 J. Bloino, B. G. Janesko, R. Gomperts, B. Mennucci, H. P. Hratchian, 
 J. V. Ortiz, A. F. Izmaylov, J. L. Sonnenberg, D. Williams-Young, 
 F. Ding, F. Lipparini, F. Egidi, J. Goings, B. Peng, A. Petrone, 
 T. Henderson, D. Ranasinghe, V. G. Zakrzewski, J. Gao, N. Rega, 
 G. Zheng, W. Liang, M. Hada, M. Ehara, K. Toyota, R. Fukuda, 
 J. Hasegawa, M. Ishida, T. Nakajima, Y. Honda, O. Kitao, H. Nakai, 
 T. Vreven, K. Throssell, J. A. Montgomery, Jr., J. E. Peralta, 
 F. Ogliaro, M. J. Bearpark, J. J. Heyd, E. N. Brothers, K. N. Kudin, 
 V. N. Staroverov, T. A. Keith, R. Kobayashi, J. Normand, 
 K. Raghavachari, A. P. Rendell, J. C. Burant, S. S. Iyengar, 
 J. Tomasi, M. Cossi, J. M. Millam, M. Klene, C. Adamo, R. Cammi, 
 J. W. Ochterski, R. L. Martin, K. Morokuma, O. Farkas, 
 J. B. Foresman, and D. J. Fox, Gaussian, Inc., Wallingford CT, 2016.
 
 ******************************************
 Gaussian 16:  ES64L-G16RevA.03 25-Dec-2016
                 1-Jan-2005 
 ******************************************
 %chk=F-_UB3LYP-aug-cc-pVDZ-Opt.chk
 %mem=500MW
 %nproc=7
 Will use up to    7 processors via shared memory.
 ----------------------------------------------------------------------
 #p opt=(maxcycles=777) freq ub3lyp/aug-cc-pVDZ pop=(Bonding,AllOrbital
 s,mk,no,nboread)
 ----------------------------------------------------------------------
 1/6=777,18=20,19=15,26=3,38=1/1,3;
 2/9=110,12=2,17=6,18=5,40=1/2;
 3/5=16,7=10,11=2,25=1,30=1,71=1,74=-5,116=2/1,2,3;
 4//1;
 5/5=2,38=5/2;
 6/7=2,8=2,9=2,10=2,15=8,20=1,22=-1,27=20,28=1,31=1,40=2,96=-1/1,2,7;
 7//1,2,3,16;
 1/6=777,18=20,19=15,26=3/3(2);
 2/9=110/2;
 99//99;
 2/9=110/2;
 3/5=16,7=10,11=2,25=1,30=1,71=1,74=-5,116=2/1,2,3;
 4/5=5,16=3,69=1/1;
 5/5=2,38=5/2;
 7//1,2,3,16;
 1/6=777,18=20,19=15,26=3/3(-5);
 2/9=110/2;
 6/7=2,8=2,9=2,10=2,15=8,19=2,20=1,22=-1,27=20,28=1,31=1,40=2,96=-1/1,2,7;
 99/9=1/99;
 Leave Link    1 at Sat Jan  1 18:25:15 2005, MaxMem=   524288000 cpu:               0.3 elap:               0.0
 (Enter /home/ubuntu/g16/l101.exe)
 ---------------------
 F-_UB3LYP-aug-cc-pVDZ
 ---------------------
 Symbolic Z-matrix:
 Charge = -1 Multiplicity = 1
 F                    -0.74756  -0.5277    0.004 
 
 ITRead=  0
 MicOpt= -1
 NAtoms=      1 NQM=        1 NQMF=       0 NMMI=      0 NMMIF=      0
                NMic=       0 NMicF=      0.
                    Isotopes and Nuclear Properties:
 (Nuclear quadrupole moments (NQMom) in fm**2, nuclear magnetic moments (NMagM)
  in nuclear magnetons)

  Atom         1
 IAtWgt=          19
 AtmWgt=  18.9984033
 NucSpn=           1
 AtZEff=  -0.0000000
 NQMom=    0.0000000
 NMagM=    2.6288670
 AtZNuc=   9.0000000
 Leave Link  101 at Sat Jan  1 18:25:15 2005, MaxMem=   524288000 cpu:               0.5 elap:               0.1
 (Enter /home/ubuntu/g16/l103.exe)

 GradGradGradGradGradGradGradGradGradGradGradGradGradGradGradGradGradGrad
 Berny optimization.
 Initialization pass.
 No Z-matrix variables, so optimization will use Cartesian coordinates.
 Trust Radius=1.00D-01 FncErr=1.00D-07 GrdErr=1.00D-06 EigMax=2.50D+02 EigMin=1.00D-04
 Number of steps in this run=    100 maximum allowed number of steps=    100.
 GradGradGradGradGradGradGradGradGradGradGradGradGradGradGradGradGradGrad

 Leave Link  103 at Sat Jan  1 18:25:15 2005, MaxMem=   524288000 cpu:               0.1 elap:               0.0
 (Enter /home/ubuntu/g16/l202.exe)
                          Input orientation:                          
 ---------------------------------------------------------------------
 Center     Atomic      Atomic             Coordinates (Angstroms)
 Number     Number       Type             X           Y           Z
 ---------------------------------------------------------------------
      1          9           0       -0.747560   -0.527700    0.004000
 ---------------------------------------------------------------------
 Stoichiometry    F(1-)
 Framework group  OH[O(F)]
 Deg. of freedom     0
 Full point group                 OH      NOp  48
 Largest Abelian subgroup         D2H     NOp   8
 Largest concise Abelian subgroup C1      NOp   1
                         Standard orientation:                         
 ---------------------------------------------------------------------
 Center     Atomic      Atomic             Coordinates (Angstroms)
 Number     Number       Type             X           Y           Z
 ---------------------------------------------------------------------
      1          9           0        0.000000    0.000000    0.000000
 ---------------------------------------------------------------------
 Leave Link  202 at Sat Jan  1 18:25:15 2005, MaxMem=   524288000 cpu:               0.5 elap:               0.1
 (Enter /home/ubuntu/g16/l301.exe)
 Standard basis: Aug-CC-pVDZ (5D, 7F)
 Ernie: Thresh=  0.10000D-02 Tol=  0.10000D-05 Strict=F.
 Ernie:  2 primitive shells out of 25 were deleted.
 There are    10 symmetry adapted cartesian basis functions of AG  symmetry.
 There are     2 symmetry adapted cartesian basis functions of B1G symmetry.
 There are     2 symmetry adapted cartesian basis functions of B2G symmetry.
 There are     2 symmetry adapted cartesian basis functions of B3G symmetry.
 There are     0 symmetry adapted cartesian basis functions of AU  symmetry.
 There are     3 symmetry adapted cartesian basis functions of B1U symmetry.
 There are     3 symmetry adapted cartesian basis functions of B2U symmetry.
 There are     3 symmetry adapted cartesian basis functions of B3U symmetry.
 There are     8 symmetry adapted basis functions of AG  symmetry.
 There are     2 symmetry adapted basis functions of B1G symmetry.
 There are     2 symmetry adapted basis functions of B2G symmetry.
 There are     2 symmetry adapted basis functions of B3G symmetry.
 There are     0 symmetry adapted basis functions of AU  symmetry.
 There are     3 symmetry adapted basis functions of B1U symmetry.
 There are     3 symmetry adapted basis functions of B2U symmetry.
 There are     3 symmetry adapted basis functions of B3U symmetry.
    23 basis functions,    43 primitive gaussians,    25 cartesian basis functions
     5 alpha electrons        5 beta electrons
       nuclear repulsion energy         0.0000000000 Hartrees.
 IExCor=  402 DFT=T Ex+Corr=B3LYP ExCW=0 ScaHFX=  0.200000
 ScaDFX=  0.800000  0.720000  1.000000  0.810000 ScalE2=  1.000000  1.000000
 IRadAn=      5 IRanWt=     -1 IRanGd=            0 ICorTp=0 IEmpDi=  4
 NAtoms=    1 NActive=    1 NUniq=    1 SFac= 1.00D+00 NAtFMM=   60 NAOKFM=F Big=F
 Integral buffers will be    131072 words long.
 Raffenetti 2 integral format.
 Two-electron integral symmetry is turned on.
 Leave Link  301 at Sat Jan  1 18:25:15 2005, MaxMem=   524288000 cpu:               0.3 elap:               0.0
 (Enter /home/ubuntu/g16/l302.exe)
 NPDir=0 NMtPBC=     1 NCelOv=     1 NCel=       1 NClECP=     1 NCelD=      1
         NCelK=      1 NCelE2=     1 NClLst=     1 CellRange=     0.0.
 One-electron integrals computed using PRISM.
 One-electron integral symmetry used in STVInt
 NBasis=    23 RedAO= T EigKep=  1.03D-01  NBF=     8     2     2     2     0     3     3     3
 NBsUse=    23 1.00D-06 EigRej= -1.00D+00 NBFU=     8     2     2     2     0     3     3     3
 Precomputing XC quadrature grid using
 IXCGrd= 4 IRadAn=           5 IRanWt=          -1 IRanGd=           0 AccXCQ= 0.00D+00.
 Generated NRdTot=       0 NPtTot=           0 NUsed=           0 NTot=          32
 NSgBfM=    25    25    25    25    25 MxSgAt=     1 MxSgA2=     1.
 Leave Link  302 at Sat Jan  1 18:25:16 2005, MaxMem=   524288000 cpu:               1.1 elap:               0.2
 (Enter /home/ubuntu/g16/l303.exe)
 DipDrv:  MaxL=1.
 Leave Link  303 at Sat Jan  1 18:25:16 2005, MaxMem=   524288000 cpu:               0.2 elap:               0.0
 (Enter /home/ubuntu/g16/l401.exe)
 ExpMin= 8.50D-02 ExpMax= 1.47D+04 ExpMxC= 5.03D+02 IAcc=3 IRadAn=         5 AccDes= 0.00D+00
 Harris functional with IExCor=  402 and IRadAn=       5 diagonalized for initial guess.
 HarFok:  IExCor=  402 AccDes= 0.00D+00 IRadAn=         5 IDoV= 1 UseB2=F ITyADJ=14
 ICtDFT=  3500011 ScaDFX=  1.000000  1.000000  1.000000  1.000000
 FoFCou: FMM=F IPFlag=           0 FMFlag=      100000 FMFlg1=           0
         NFxFlg=           0 DoJE=T BraDBF=F KetDBF=T FulRan=T
         wScrn=  0.000000 ICntrl=       500 IOpCl=  0 I1Cent=   200000004 NGrid=           0
         NMat0=    1 NMatS0=      1 NMatT0=    0 NMatD0=    1 NMtDS0=    0 NMtDT0=    0
 Petite list used in FoFCou.
 Harris En= -100.085116202788    
 JPrj=0 DoOrth=F DoCkMO=F.
 Initial guess orbital symmetries:
 Alpha Orbitals:
       Occupied  (A1G) (A1G) (T1U) (T1U) (T1U)
       Virtual   (A1G) (T1U) (T1U) (T1U) (T2G) (T2G) (T2G) (EG)
                 (EG) (T1U) (T1U) (T1U) (A1G) (T2G) (T2G) (T2G)
                 (EG) (EG)
 Beta  Orbitals:
       Occupied  (A1G) (A1G) (T1U) (T1U) (T1U)
       Virtual   (A1G) (T1U) (T1U) (T1U) (T2G) (T2G) (T2G) (EG)
                 (EG) (T1U) (T1U) (T1U) (A1G) (T2G) (T2G) (T2G)
                 (EG) (EG)
 The electronic state of the initial guess is 1-A1G.
 Initial guess <Sx>= 0.0000 <Sy>= 0.0000 <Sz>= 0.0000 <S**2>=-0.0000 S=-0.0000
 Leave Link  401 at Sat Jan  1 18:25:16 2005, MaxMem=   524288000 cpu:               1.6 elap:               0.2
 (Enter /home/ubuntu/g16/l502.exe)
 Keep R1 and R2 ints in memory in symmetry-blocked form, NReq=6076112.
 FoFCou: FMM=F IPFlag=           0 FMFlag=           0 FMFlg1=           0
         NFxFlg=           0 DoJE=F BraDBF=F KetDBF=F FulRan=T
         wScrn=  0.000000 ICntrl=       600 IOpCl=  0 I1Cent=           0 NGrid=           0
         NMat0=    1 NMatS0=    276 NMatT0=    0 NMatD0=    1 NMtDS0=    0 NMtDT0=    0
 Petite list used in FoFCou.
 UHF open shell SCF:
 Using DIIS extrapolation, IDIIS=  1040.
 NGot=   524288000 LenX=   524271508 LenY=   524270442
 Requested convergence on RMS density matrix=1.00D-08 within 128 cycles.
 Requested convergence on MAX density matrix=1.00D-06.
 Requested convergence on             energy=1.00D-06.
 No special actions if energy rises.
 Integral accuracy reduced to 1.0D-05 until final iterations.

 Cycle   1  Pass 0  IDiag  1:
 E= -99.7554579847633    
 DIIS: error= 8.18D-02 at cycle   1 NSaved=   1.
 NSaved= 1 IEnMin= 1 EnMin= -99.7554579847633     IErMin= 1 ErrMin= 8.18D-02
 ErrMax= 8.18D-02  0.00D+00 EMaxC= 1.00D-01 BMatC= 5.39D-01 BMatP= 5.39D-01
 IDIUse=3 WtCom= 1.82D-01 WtEn= 8.18D-01
 Coeff-Com:  0.100D+01
 Coeff-En:   0.100D+01
 Coeff:      0.100D+01
 Gap=     0.162 Goal=   None    Shift=    0.000
 Gap=     0.162 Goal=   None    Shift=    0.000
 GapD=    0.162 DampG=1.000 DampE=0.500 DampFc=0.5000 IDamp=-1.
 Damping current iteration by 5.00D-01
 RMSDP=3.97D-02 MaxDP=2.56D-01              OVMax= 4.21D-01

 Cycle   2  Pass 0  IDiag  1:
 E= -99.6181043804562     Delta-E=        0.137353604307 Rises=F Damp=T
 DIIS: error= 8.93D-02 at cycle   2 NSaved=   2.
 NSaved= 2 IEnMin= 1 EnMin= -99.7554579847633     IErMin= 1 ErrMin= 8.18D-02
 ErrMax= 8.93D-02  0.00D+00 EMaxC= 1.00D-01 BMatC= 5.49D-01 BMatP= 5.39D-01
 IDIUse=3 WtCom= 1.07D-01 WtEn= 8.93D-01
 Coeff-Com:  0.502D+00 0.498D+00
 Coeff-En:   0.705D+00 0.295D+00
 Coeff:      0.684D+00 0.316D+00
 Gap=     0.303 Goal=   None    Shift=    0.000
 Gap=     0.303 Goal=   None    Shift=    0.000
 RMSDP=5.56D-03 MaxDP=6.07D-02 DE= 1.37D-01 OVMax= 2.38D-01

 Cycle   3  Pass 0  IDiag  1:
 E= -99.8102410765680     Delta-E=       -0.192136696112 Rises=F Damp=F
 DIIS: error= 6.99D-02 at cycle   3 NSaved=   3.
 NSaved= 3 IEnMin= 3 EnMin= -99.8102410765680     IErMin= 3 ErrMin= 6.99D-02
 ErrMax= 6.99D-02  0.00D+00 EMaxC= 1.00D-01 BMatC= 3.59D-01 BMatP= 5.39D-01
 IDIUse=3 WtCom= 3.01D-01 WtEn= 6.99D-01
 Coeff-Com:  0.405D+00-0.461D+00 0.106D+01
 Coeff-En:   0.377D+00 0.000D+00 0.623D+00
 Coeff:      0.386D+00-0.139D+00 0.753D+00
 Gap=     0.398 Goal=   None    Shift=    0.000
 Gap=     0.398 Goal=   None    Shift=    0.000
 RMSDP=7.27D-03 MaxDP=5.55D-02 DE=-1.92D-01 OVMax= 7.51D-02

 Cycle   4  Pass 0  IDiag  1:
 E= -99.8698995809297     Delta-E=       -0.059658504362 Rises=F Damp=F
 DIIS: error= 5.95D-03 at cycle   4 NSaved=   4.
 NSaved= 4 IEnMin= 4 EnMin= -99.8698995809297     IErMin= 4 ErrMin= 5.95D-03
 ErrMax= 5.95D-03  0.00D+00 EMaxC= 1.00D-01 BMatC= 2.78D-03 BMatP= 3.59D-01
 IDIUse=3 WtCom= 9.41D-01 WtEn= 5.95D-02
 Coeff-Com:  0.404D-02-0.402D-01 0.133D+00 0.903D+00
 Coeff-En:   0.000D+00 0.000D+00 0.000D+00 0.100D+01
 Coeff:      0.380D-02-0.378D-01 0.125D+00 0.909D+00
 Gap=     0.394 Goal=   None    Shift=    0.000
 Gap=     0.394 Goal=   None    Shift=    0.000
 RMSDP=8.58D-04 MaxDP=6.43D-03 DE=-5.97D-02 OVMax= 8.89D-03

 Cycle   5  Pass 0  IDiag  1:
 E= -99.8703001283915     Delta-E=       -0.000400547462 Rises=F Damp=F
 DIIS: error= 2.32D-03 at cycle   5 NSaved=   5.
 NSaved= 5 IEnMin= 5 EnMin= -99.8703001283915     IErMin= 5 ErrMin= 2.32D-03
 ErrMax= 2.32D-03  0.00D+00 EMaxC= 1.00D-01 BMatC= 4.00D-04 BMatP= 2.78D-03
 IDIUse=3 WtCom= 9.77D-01 WtEn= 2.32D-02
 Coeff-Com:  0.891D-02-0.344D-02-0.168D-01 0.158D-01 0.996D+00
 Coeff-En:   0.000D+00 0.000D+00 0.000D+00 0.179D+00 0.821D+00
 Coeff:      0.870D-02-0.336D-02-0.164D-01 0.196D-01 0.992D+00
 Gap=     0.397 Goal=   None    Shift=    0.000
 Gap=     0.397 Goal=   None    Shift=    0.000
 RMSDP=2.44D-04 MaxDP=1.66D-03 DE=-4.01D-04 OVMax= 2.54D-03

 Cycle   6  Pass 0  IDiag  1:
 E= -99.8703726207960     Delta-E=       -0.000072492405 Rises=F Damp=F
 DIIS: error= 8.77D-05 at cycle   6 NSaved=   6.
 NSaved= 6 IEnMin= 6 EnMin= -99.8703726207960     IErMin= 6 ErrMin= 8.77D-05
 ErrMax= 8.77D-05  0.00D+00 EMaxC= 1.00D-01 BMatC= 5.51D-07 BMatP= 4.00D-04
 IDIUse=1 WtCom= 1.00D+00 WtEn= 0.00D+00
 Coeff-Com: -0.979D-03 0.141D-03 0.261D-02-0.546D-02-0.177D+00 0.118D+01
 Coeff:     -0.979D-03 0.141D-03 0.261D-02-0.546D-02-0.177D+00 0.118D+01
 Gap=     0.397 Goal=   None    Shift=    0.000
 Gap=     0.397 Goal=   None    Shift=    0.000
 RMSDP=1.10D-05 MaxDP=6.79D-05 DE=-7.25D-05 OVMax= 1.14D-04

 Cycle   7  Pass 0  IDiag  1:
 E= -99.8703727261476     Delta-E=       -0.000000105352 Rises=F Damp=F
 DIIS: error= 6.81D-06 at cycle   7 NSaved=   7.
 NSaved= 7 IEnMin= 7 EnMin= -99.8703727261476     IErMin= 7 ErrMin= 6.81D-06
 ErrMax= 6.81D-06  0.00D+00 EMaxC= 1.00D-01 BMatC= 3.52D-09 BMatP= 5.51D-07
 IDIUse=1 WtCom= 1.00D+00 WtEn= 0.00D+00
 Coeff-Com: -0.638D-04 0.246D-04 0.115D-03-0.438D-03-0.557D-02 0.182D-01
 Coeff-Com:  0.988D+00
 Coeff:     -0.638D-04 0.246D-04 0.115D-03-0.438D-03-0.557D-02 0.182D-01
 Coeff:      0.988D+00
 Gap=     0.397 Goal=   None    Shift=    0.000
 Gap=     0.397 Goal=   None    Shift=    0.000
 RMSDP=6.13D-07 MaxDP=4.33D-06 DE=-1.05D-07 OVMax= 6.34D-06

 Initial convergence to 1.0D-05 achieved.  Increase integral accuracy.
 Cycle   8  Pass 1  IDiag  1:
 E= -99.8703727210684     Delta-E=        0.000000005079 Rises=F Damp=F
 DIIS: error= 1.06D-06 at cycle   1 NSaved=   1.
 NSaved= 1 IEnMin= 1 EnMin= -99.8703727210684     IErMin= 1 ErrMin= 1.06D-06
 ErrMax= 1.06D-06  0.00D+00 EMaxC= 1.00D-01 BMatC= 8.38D-11 BMatP= 8.38D-11
 IDIUse=1 WtCom= 1.00D+00 WtEn= 0.00D+00
 Coeff-Com:  0.100D+01
 Coeff:      0.100D+01
 Gap=     0.397 Goal=   None    Shift=    0.000
 Gap=     0.397 Goal=   None    Shift=    0.000
 RMSDP=6.13D-07 MaxDP=4.33D-06 DE= 5.08D-09 OVMax= 3.65D-06

 Cycle   9  Pass 1  IDiag  1:
 E= -99.8703727210137     Delta-E=        0.000000000055 Rises=F Damp=F
 DIIS: error= 2.29D-06 at cycle   2 NSaved=   2.
 NSaved= 2 IEnMin= 1 EnMin= -99.8703727210684     IErMin= 1 ErrMin= 1.06D-06
 ErrMax= 2.29D-06  0.00D+00 EMaxC= 1.00D-01 BMatC= 4.08D-10 BMatP= 8.38D-11
 IDIUse=1 WtCom= 1.00D+00 WtEn= 0.00D+00
 Coeff-Com:  0.688D+00 0.312D+00
 Coeff:      0.688D+00 0.312D+00
 Gap=     0.397 Goal=   None    Shift=    0.000
 Gap=     0.397 Goal=   None    Shift=    0.000
 RMSDP=2.30D-07 MaxDP=1.74D-06 DE= 5.47D-11 OVMax= 2.37D-06

 Cycle  10  Pass 1  IDiag  1:
 E= -99.8703727210837     Delta-E=       -0.000000000070 Rises=F Damp=F
 DIIS: error= 4.65D-08 at cycle   3 NSaved=   3.
 NSaved= 3 IEnMin= 3 EnMin= -99.8703727210837     IErMin= 3 ErrMin= 4.65D-08
 ErrMax= 4.65D-08  0.00D+00 EMaxC= 1.00D-01 BMatC= 1.58D-13 BMatP= 8.38D-11
 IDIUse=1 WtCom= 1.00D+00 WtEn= 0.00D+00
 Coeff-Com:  0.456D-01 0.192D-02 0.953D+00
 Coeff:      0.456D-01 0.192D-02 0.953D+00
 Gap=     0.397 Goal=   None    Shift=    0.000
 Gap=     0.397 Goal=   None    Shift=    0.000
 RMSDP=5.22D-09 MaxDP=3.46D-08 DE=-7.00D-11 OVMax= 5.43D-08

 SCF Done:  E(UB3LYP) =  -99.8703727211     A.U. after   10 cycles
            NFock= 10  Conv=0.52D-08     -V/T= 2.0056
 <Sx>= 0.0000 <Sy>= 0.0000 <Sz>= 0.0000 <S**2>=-0.0000 S=-0.0000
 <L.S>= 0.000000000000E+00
 KE= 9.931051303796D+01 PE=-2.429132557637D+02 EE= 4.373237000466D+01
 Annihilation of the first spin contaminant:
 S**2 before annihilation    -0.0000,   after     0.0000
 Leave Link  502 at Sat Jan  1 18:25:16 2005, MaxMem=   524288000 cpu:               2.3 elap:               0.4
 (Enter /home/ubuntu/g16/l601.exe)
 Copying SCF densities to generalized density rwf, IOpCl= 1 IROHF=0.

 **********************************************************************

            Population analysis using the SCF density.

 **********************************************************************

 Orbital symmetries:
 Alpha Orbitals:
       Occupied  (A1G) (A1G) (T1U) (T1U) (T1U)
       Virtual   (A1G) (T1U) (T1U) (T1U) (T2G) (T2G) (T2G) (EG)
                 (EG) (T1U) (T1U) (T1U) (A1G) (T2G) (T2G) (T2G)
                 (EG) (EG)
 Beta  Orbitals:
       Occupied  (A1G) (A1G) (T1U) (T1U) (T1U)
       Virtual   (A1G) (T1U) (T1U) (T1U) (T2G) (T2G) (T2G) (EG)
                 (EG) (T1U) (T1U) (T1U) (A1G) (T2G) (T2G) (T2G)
                 (EG) (EG)
 The electronic state is 1-A1G.
     Natural Orbital Coefficients:
                           1         2         3         4         5
     Eigenvalues --     2.00000   2.00000   2.00000   2.00000   2.00000
   1 1   F  1S         -0.49849   0.89359   0.00000   0.00000   0.00000
   2        2S          0.47127   0.15614   0.00000   0.00000   0.00000
   3        3S          0.52591   0.14337   0.00000   0.00000   0.00000
   4        4S          0.06079   0.01976   0.00000   0.00000   0.00000
   5        5PX         0.00000   0.00000   0.00000   0.00000   0.63551
   6        5PY         0.00000   0.00000   0.00344   0.63550  -0.00000
   7        5PZ         0.00000   0.00000   0.63550  -0.00344   0.00000
   8        6PX         0.00000   0.00000  -0.00000   0.00000   0.41027
   9        6PY         0.00000   0.00000   0.00222   0.41027  -0.00000
  10        6PZ         0.00000   0.00000   0.41027  -0.00222   0.00000
  11        7PX         0.00000   0.00000   0.00000   0.00000   0.20772
  12        7PY         0.00000   0.00000   0.00113   0.20772  -0.00000
  13        7PZ         0.00000   0.00000   0.20772  -0.00113   0.00000
  14        8D 0        0.00000  -0.00000   0.00000   0.00000   0.00000
  15        8D+1       -0.00000  -0.00000   0.00000   0.00000   0.00000
  16        8D-1        0.00000   0.00000   0.00000   0.00000   0.00000
  17        8D+2        0.00000   0.00000   0.00000   0.00000   0.00000
  18        8D-2        0.00000   0.00000   0.00000   0.00000   0.00000
  19        9D 0       -0.00000   0.00000   0.00000   0.00000   0.00000
  20        9D+1        0.00000  -0.00000   0.00000   0.00000   0.00000
  21        9D-1        0.00000   0.00000   0.00000   0.00000   0.00000
  22        9D+2       -0.00000   0.00000   0.00000   0.00000   0.00000
  23        9D-2        0.00000  -0.00000   0.00000   0.00000   0.00000
                           6         7         8         9        10
     Eigenvalues --     0.00000   0.00000   0.00000   0.00000   0.00000
   1 1   F  1S          0.00820  -0.03006   0.04732   0.00000   0.00000
   2        2S          0.45291   0.58975  -0.10321   0.00000   0.00000
   3        3S         -0.84917  -0.62549  -0.38633   0.00000   0.00000
   4        4S          0.62441   0.09322   0.72683   0.00000   0.00000
   5        5PX         0.00000   0.00000   0.00000  -0.00000  -0.98669
   6        5PY         0.00000   0.00000   0.00000   0.92474  -0.00000
   7        5PZ         0.00000   0.00000   0.00000  -0.09262   0.00000
   8        6PX         0.00000   0.00000   0.00000   0.00000   1.10800
   9        6PY         0.00000   0.00000   0.00000  -0.80972   0.00000
  10        6PZ         0.00000   0.00000   0.00000   0.04408  -0.00000
  11        7PX         0.00000   0.00000   0.00000  -0.00000  -0.15153
  12        7PY         0.00000   0.00000   0.00000  -0.22832  -0.00000
  13        7PZ         0.00000   0.00000   0.00000   0.08281  -0.00000
  14        8D 0       -0.05702   0.70047   0.04771   0.00000   0.00000
  15        8D+1       -0.35615   0.56000   0.02158   0.00000   0.00000
  16        8D-1        0.07990  -0.03092  -0.30035   0.00000   0.00000
  17        8D+2        0.02120   0.60334   0.06348   0.00000   0.00000
  18        8D-2       -0.00000   0.00007   0.00003   0.00000   0.00000
  19        9D 0        0.87724  -0.22888  -0.05087   0.00000   0.00000
  20        9D+1        0.12452  -0.29812   0.63325   0.00000   0.00000
  21        9D-1        0.07990  -0.03092  -0.30035   0.00000   0.00000
  22        9D+2        0.04841  -0.25569  -0.16201   0.00000   0.00000
  23        9D-2        0.00009  -0.00025  -0.00009   0.00000   0.00000
                          11        12        13        14        15
     Eigenvalues --     0.00000   0.00000   0.00000   0.00000   0.00000
   1 1   F  1S          0.04965   0.00000   0.00000   0.01403   0.00000
   2        2S         -1.48296   0.00000   0.00000   0.09827   0.00000
   3        3S          1.87872   0.00000   0.00000  -0.32866   0.00000
   4        4S         -0.69292   0.00000   0.00000   0.35194   0.00000
   5        5PX         0.00000   0.00000  -0.02073   0.00000   0.00000
   6        5PY         0.00000  -0.32213  -0.00000   0.00000  -0.12271
   7        5PZ         0.00000  -0.53910  -0.00000   0.00000   0.70834
   8        6PX         0.00000  -0.00000   0.76955   0.00000  -0.00000
   9        6PY         0.00000   0.88688   0.00000   0.00000   0.61049
  10        6PZ         0.00000   0.36732   0.00000   0.00000  -0.60744
  11        7PX         0.00000   0.00000  -1.21155   0.00000   0.00000
  12        7PY         0.00000  -0.89979  -0.00000   0.00000  -0.78423
  13        7PZ         0.00000   0.30269  -0.00000   0.00000  -0.19561
  14        8D 0        0.27649   0.00000   0.00000  -0.44274   0.00000
  15        8D+1       -0.02183   0.00000   0.00000   0.76483   0.00000
  16        8D-1       -0.14051   0.00000   0.00000  -0.15677   0.00000
  17        8D+2        0.18481   0.00000   0.00000  -0.31184   0.00000
  18        8D-2       -0.00072   0.00000   0.00000  -0.00024   0.00000
  19        9D 0        0.15524   0.00000   0.00000   0.35195   0.00000
  20        9D+1       -0.20679   0.00000   0.00000  -0.68738   0.00000
  21        9D-1       -0.14051   0.00000   0.00000  -0.15677   0.00000
  22        9D+2        0.00645   0.00000   0.00000   0.52880   0.00000
  23        9D-2        0.00036   0.00000   0.00000  -0.00001   0.00000
                          16        17        18        19        20
     Eigenvalues --     0.00000  -0.00000  -0.00000  -0.00000  -0.00000
   1 1   F  1S         -0.00000   0.00000  -0.00007   0.06758   0.02043
   2        2S          0.00000   0.00000  -0.00110  -0.19800  -0.53463
   3        3S         -0.00000   0.00000   0.00260  -0.46768   0.64749
   4        4S          0.00000   0.00000  -0.00233   0.98448  -0.20512
   5        5PX         0.00000   0.00000   0.00000   0.00000   0.00000
   6        5PY         0.00000   0.00264   0.00000   0.00000   0.00000
   7        5PZ         0.00000  -0.41596   0.00000   0.00000   0.00000
   8        6PX         0.00000  -0.00000   0.00000   0.00000   0.00000
   9        6PY         0.00000   0.07045   0.00000   0.00000   0.00000
  10        6PZ         0.00000   1.14631   0.00000   0.00000   0.00000
  11        7PX         0.00000   0.00000   0.00000   0.00000   0.00000
  12        7PY         0.00000  -0.11847   0.00000   0.00000   0.00000
  13        7PZ         0.00000  -1.16364   0.00000   0.00000   0.00000
  14        8D 0        0.00000   0.00000  -0.01438   0.15363  -0.08729
  15        8D+1       -0.00000   0.00000  -0.00365   0.02366   0.44628
  16        8D-1        1.01976   0.00000   0.00005   0.20612   0.37997
  17        8D+2        0.00000   0.00000   0.01934   0.20215  -0.05029
  18        8D-2        0.00000   0.00000   0.35826   0.00131  -0.00180
  19        9D 0       -0.00000   0.00000   0.00562  -0.37879   0.18849
  20        9D+1        0.00000   0.00000   0.00383  -0.40640   0.29907
  21        9D-1       -1.01976   0.00000   0.00005   0.20612   0.37997
  22        9D+2       -0.00000   0.00000  -0.00225  -0.24435   0.14522
  23        9D-2       -0.00000   0.00000  -1.13771  -0.00136   0.00143
                          21        22        23
     Eigenvalues --    -0.00000  -0.00000  -0.00000
   1 1   F  1S          0.00131   0.00552  -0.00012
   2        2S          0.01883   0.10197  -0.00322
   3        3S         -0.04678  -0.23447   0.00681
   4        4S          0.04316   0.20547  -0.00560
   5        5PX         0.00000   0.00000   0.00000
   6        5PY         0.00000   0.00000   0.00000
   7        5PZ         0.00000   0.00000   0.00000
   8        6PX         0.00000   0.00000   0.00000
   9        6PY         0.00000   0.00000   0.00000
  10        6PZ         0.00000   0.00000   0.00000
  11        7PX         0.00000   0.00000   0.00000
  12        7PY         0.00000   0.00000   0.00000
  13        7PZ         0.00000   0.00000   0.00000
  14        8D 0        0.62288   0.42176  -0.05563
  15        8D+1        0.17234  -0.33622  -0.01385
  16        8D-1        0.00564   0.01886  -0.00032
  17        8D+2       -0.87328  -0.23838   0.07696
  18        8D-2        0.10554   0.00186   1.10885
  19        9D 0       -0.21749  -0.41204   0.02053
  20        9D+1       -0.13966   0.27227   0.01228
  21        9D-1        0.00564   0.01886  -0.00032
  22        9D+2        0.11409   0.94945  -0.01107
  23        9D-2       -0.04922  -0.00056  -0.26874
          Condensed to atoms (all electrons):
               1
     1  F   10.000000
          Atomic-Atomic Spin Densities.
               1
     1  F   -0.000000
 Mulliken charges and spin densities:
               1          2
     1  F   -1.000000  -0.000000
 Sum of Mulliken charges =  -1.00000  -0.00000
 Mulliken charges and spin densities with hydrogens summed into heavy atoms:
               1          2
     1  F   -1.000000  -0.000000

 Bonding Mulliken population analysis:
          Bonding Condensed to atoms (all electrons):
               1
     1  F    0.000000
          Bonding Atomic-Atomic Spin Densities.
               1
     1  F    0.000000
 Bonding Mulliken charges and spin densities:
               1          2
     1  F    9.000000   0.000000
 Sum of Bonding Mulliken charges =   9.00000   0.00000
 Bonding Mulliken charges and spin densities with hydrogens summed into heavy atoms:
               1          2
     1  F    9.000000   0.000000
 Electronic spatial extent (au):  <R**2>=             17.4874
 Charge=             -1.0000 electrons
 Dipole moment (field-independent basis, Debye):
    X=              0.0000    Y=              0.0000    Z=              0.0000  Tot=              0.0000
 Quadrupole moment (field-independent basis, Debye-Ang):
   XX=             -7.8404   YY=             -7.8404   ZZ=             -7.8404
   XY=              0.0000   XZ=              0.0000   YZ=             -0.0000
 Traceless Quadrupole moment (field-independent basis, Debye-Ang):
   XX=              0.0000   YY=              0.0000   ZZ=             -0.0000
   XY=              0.0000   XZ=              0.0000   YZ=             -0.0000
 Octapole moment (field-independent basis, Debye-Ang**2):
  XXX=              0.0000  YYY=              0.0000  ZZZ=              0.0000  XYY=              0.0000
  XXY=              0.0000  XXZ=              0.0000  XZZ=              0.0000  YZZ=              0.0000
  YYZ=              0.0000  XYZ=              0.0000
 Hexadecapole moment (field-independent basis, Debye-Ang**3):
 XXXX=            -10.3953 YYYY=            -10.3953 ZZZZ=            -10.3953 XXXY=              0.0000
 XXXZ=              0.0000 YYYX=              0.0000 YYYZ=             -0.0000 ZZZX=              0.0000
 ZZZY=             -0.0000 XXYY=             -3.4651 XXZZ=             -3.4651 YYZZ=             -3.4651
 XXYZ=             -0.0000 YYXZ=              0.0000 ZZXY=              0.0000
 N-N= 0.000000000000D+00 E-N=-2.429132573706D+02  KE= 9.931051303796D+01
 Symmetry AG   KE= 8.222176575865D+01
 Symmetry B1G  KE= 2.019309450074D-62
 Symmetry B2G  KE= 1.606875063101D-62
 Symmetry B3G  KE= 2.372680610254D-62
 Symmetry AU   KE= 0.000000000000D+00
 Symmetry B1U  KE= 5.696249093103D+00
 Symmetry B2U  KE= 5.696249093103D+00
 Symmetry B3U  KE= 5.696249093103D+00
 Symmetry AG   SP=-3.978603832102D-15
 Symmetry B1G  SP=-4.579004761702D-64
 Symmetry B2G  SP=-2.112286306598D-65
 Symmetry B3G  SP=-1.478566938974D-63
 Symmetry AU   SP= 0.000000000000D+00
 Symmetry B1U  SP=-1.134021827379D-15
 Symmetry B2U  SP=-1.288069036973D-15
 Symmetry B3U  SP=-1.116609011097D-15

 Atomic contributions to Alpha molecular orbitals:
 Alpha occ 1 OE=-24.276 is F1-s=1.0000
 Alpha occ 2 OE=-0.712 is F1-s=1.0000
 Alpha occ 3 OE=0.003 is F1-p=1.0000
 Alpha occ 4 OE=0.003 is F1-p=1.0000
 Alpha occ 5 OE=0.003 is F1-p=1.0000
 Alpha vir 6 OE=0.400 is F1-s=1.0000
 Alpha vir 7 OE=0.402 is F1-p=1.0000
 Alpha vir 8 OE=0.402 is F1-p=1.0000
 Alpha vir 9 OE=0.402 is F1-p=1.0000
 Alpha vir 10 OE=1.489 is F1-d=1.0000
 Alpha vir 11 OE=1.489 is F1-d=1.0000
 Alpha vir 12 OE=1.489 is F1-d=1.0000
 Alpha vir 13 OE=1.489 is F1-d=1.0000
 Alpha vir 14 OE=1.489 is F1-d=1.0000
 Alpha vir 15 OE=1.713 is F1-p=1.0000
 Alpha vir 16 OE=1.713 is F1-p=1.0000
 Alpha vir 17 OE=1.713 is F1-p=1.0000
 Alpha vir 18 OE=2.328 is F1-s=1.0000
 Alpha vir 19 OE=4.818 is F1-d=1.0000
 Alpha vir 20 OE=4.818 is F1-d=1.0000
 Alpha vir 21 OE=4.818 is F1-d=1.0000
 Alpha vir 22 OE=4.818 is F1-d=1.0000
 Alpha vir 23 OE=4.818 is F1-d=1.0000

 Atomic contributions to Beta  molecular orbitals:
 Beta  occ 1 OE=-24.276 is F1-s=1.0000
 Beta  occ 2 OE=-0.712 is F1-s=1.0000
 Beta  occ 3 OE=0.003 is F1-p=1.0000
 Beta  occ 4 OE=0.003 is F1-p=1.0000
 Beta  occ 5 OE=0.003 is F1-p=1.0000
 Beta  vir 6 OE=0.400 is F1-s=1.0000
 Beta  vir 7 OE=0.402 is F1-p=1.0000
 Beta  vir 8 OE=0.402 is F1-p=1.0000
 Beta  vir 9 OE=0.402 is F1-p=1.0000
 Beta  vir 10 OE=1.489 is F1-d=1.0000
 Beta  vir 11 OE=1.489 is F1-d=1.0000
 Beta  vir 12 OE=1.489 is F1-d=1.0000
 Beta  vir 13 OE=1.489 is F1-d=1.0000
 Beta  vir 14 OE=1.489 is F1-d=1.0000
 Beta  vir 15 OE=1.713 is F1-p=1.0000
 Beta  vir 16 OE=1.713 is F1-p=1.0000
 Beta  vir 17 OE=1.713 is F1-p=1.0000
 Beta  vir 18 OE=2.328 is F1-s=1.0000
 Beta  vir 19 OE=4.818 is F1-d=1.0000
 Beta  vir 20 OE=4.818 is F1-d=1.0000
 Beta  vir 21 OE=4.818 is F1-d=1.0000
 Beta  vir 22 OE=4.818 is F1-d=1.0000
 Beta  vir 23 OE=4.818 is F1-d=1.0000
 
                          Isotropic Fermi Contact Couplings
        Atom                 a.u.       MegaHertz       Gauss      10(-4) cm-1
     1  F(19)              0.00000       0.00000       0.00000       0.00000
 --------------------------------------------------------
       Center         ----  Spin Dipole Couplings  ----
                      3XX-RR        3YY-RR        3ZZ-RR
 --------------------------------------------------------
     1   Atom        0.000000      0.000000      0.000000
 --------------------------------------------------------
                        XY            XZ            YZ
 --------------------------------------------------------
     1   Atom        0.000000      0.000000      0.000000
 --------------------------------------------------------


 ---------------------------------------------------------------------------------
              Anisotropic Spin Dipole Couplings in Principal Axis System
 ---------------------------------------------------------------------------------

       Atom             a.u.   MegaHertz   Gauss  10(-4) cm-1        Axes

              Baa     0.0000     0.000     0.000     0.000  1.0000  0.0000  0.0000
     1 F(19)  Bbb     0.0000     0.000     0.000     0.000 -0.0000  1.0000  0.0000
              Bcc     0.0000     0.000     0.000     0.000  0.0000  0.0000  1.0000
 

 ---------------------------------------------------------------------------------

 No NMR shielding tensors so no spin-rotation constants.
 Leave Link  601 at Sat Jan  1 18:25:17 2005, MaxMem=   524288000 cpu:               1.2 elap:               0.2
 (Enter /home/ubuntu/g16/l602.exe)
 FitSet:  NAtFit=     1 NAtPot=     1 NAtFrz=     0 MDM=     5 TotChg=  -1.00000
 Merz-Kollman atomic radii used.

 **********************************************************************

            Electrostatic Properties Using The SCF Density

 **********************************************************************

       Atomic Center    1 is at   0.000000  0.000000  0.000000
     227 points will be used for fitting atomic charges
 Fitting point charges to electrostatic potential
 Charges from ESP fit, RMS=   0.00368 RRMS=   0.01642:
 ESP charges:
               1
     1  F   -1.000000
 Sum of ESP charges =  -1.00000
 ESP charges with hydrogens summed into heavy atoms:
               1
     1  F   -1.000000
 Charge=  -1.00000 Dipole=     0.0000     0.0000     0.0000 Tot=     0.0000
 -----------------------------------------------------------------

              Electrostatic Properties (Atomic Units)

 -----------------------------------------------------------------
    Center     Electric         -------- Electric Field --------
               Potential          X             Y             Z
 -----------------------------------------------------------------
    1 Atom    -26.990362
 -----------------------------------------------------------------
 Leave Link  602 at Sat Jan  1 18:25:17 2005, MaxMem=   524288000 cpu:               0.2 elap:               0.0
 (Enter /home/ubuntu/g16/l607.exe)
 ******************************Gaussian NBO Version 3.1******************************
             N A T U R A L   A T O M I C   O R B I T A L   A N D
          N A T U R A L   B O N D   O R B I T A L   A N A L Y S I S
 ******************************Gaussian NBO Version 3.1******************************

       /RESON  / : Allow strongly delocalized NBO set
       /BNDIDX / : Print bond indices based on the NAO density matrix

 Analyzing the SCF density

 Job title: F-_UB3LYP-aug-cc-pVDZ                                           

 Storage needed:      1763 in NPA,      2877 in NBO ( 524287991 available)
 GSVD:  LWork=        -263 too small for GESVD, short by        1793 words or        1793 for optimal perf.


 NATURAL POPULATIONS:  Natural atomic orbital occupancies 
                                                          
   NAO  Atom  No  lang   Type(AO)    Occupancy
 --------------------------------------------
     1    F    1  S      Cor( 1S)     2.00000
     2    F    1  S      Val( 2S)     2.00000
     3    F    1  S      Ryd( 4S)     0.00000
     4    F    1  S      Ryd( 3S)     0.00000
     5    F    1  px     Val( 2p)     2.00000
     6    F    1  px     Ryd( 4p)     0.00000
     7    F    1  px     Ryd( 3p)     0.00000
     8    F    1  py     Val( 2p)     2.00000
     9    F    1  py     Ryd( 4p)     0.00000
    10    F    1  py     Ryd( 3p)     0.00000
    11    F    1  pz     Val( 2p)     2.00000
    12    F    1  pz     Ryd( 4p)     0.00000
    13    F    1  pz     Ryd( 3p)     0.00000
    14    F    1  dxy    Ryd( 4d)     0.00000
    15    F    1  dxy    Ryd( 3d)     0.00000
    16    F    1  dxz    Ryd( 3d)     0.00000
    17    F    1  dxz    Ryd( 4d)     0.00000
    18    F    1  dyz    Ryd( 4d)     0.00000
    19    F    1  dyz    Ryd( 3d)     0.00000
    20    F    1  dx2y2  Ryd( 4d)     0.00000
    21    F    1  dx2y2  Ryd( 3d)     0.00000
    22    F    1  dz2    Ryd( 4d)     0.00000
    23    F    1  dz2    Ryd( 3d)     0.00000


 Summary of Natural Population Analysis:                  
                                                          
                                       Natural Population 
                Natural  -----------------------------------------------
    Atom  No    Charge         Core      Valence    Rydberg      Total
 -----------------------------------------------------------------------
      F    1   -1.00000      2.00000     8.00000    0.00000    10.00000
 =======================================================================
   * Total *   -1.00000      2.00000     8.00000    0.00000    10.00000

                                 Natural Population      
 --------------------------------------------------------
   Core                       2.00000 (100.0000% of   2)
   Valence                    8.00000 (100.0000% of   8)
   Natural Minimal Basis     10.00000 (100.0000% of  10)
   Natural Rydberg Basis      0.00000 (  0.0000% of  10)
 --------------------------------------------------------

    Atom  No          Natural Electron Configuration
 ----------------------------------------------------------------------------
      F    1      [core]2S( 2.00)2p( 6.00)


 Wiberg bond index matrix in the NAO basis:                                    

     Atom    1
     ---- ------
   1.  F  0.0000


 Wiberg bond index, Totals by atom:                                            

     Atom    1
     ---- ------
   1.  F  0.0000


 Atom-atom overlap-weighted NAO bond order:                                    

     Atom    1
     ---- ------
   1.  F  0.0000


 Atom-atom overlap-weighted NAO bond order, Totals by atom:                    

     Atom    1
     ---- ------
   1.  F  0.0000


 MO bond order:                                                                

     Atom    1
     ---- ------
   1.  F  0.0000


 MO atomic valencies:                                                          

     Atom    1
     ---- ------
   1.  F  0.0000


 ***************************************************
 *******         Alpha spin orbitals         *******
 ***************************************************


 NATURAL POPULATIONS:  Natural atomic orbital occupancies 
                                                          
   NAO  Atom  No  lang   Type(AO)    Occupancy      Energy
 ----------------------------------------------------------
     1    F    1  S      Val( 2S)     1.00000      -1.73783
     2    F    1  S      Cor( 1S)     1.00000     -23.25050
     3    F    1  S      Ryd( 4S)     0.00000       1.50721
     4    F    1  S      Ryd( 3S)     0.00000       1.22061
     5    F    1  px     Val( 2p)     1.00000       0.00295
     6    F    1  px     Ryd( 3p)     0.00000       0.71019
     7    F    1  px     Ryd( 4p)     0.00000       1.40485
     8    F    1  py     Val( 2p)     1.00000       0.00295
     9    F    1  py     Ryd( 3p)     0.00000       0.71019
    10    F    1  py     Ryd( 4p)     0.00000       1.40485
    11    F    1  pz     Val( 2p)     1.00000       0.00295
    12    F    1  pz     Ryd( 3p)     0.00000       0.71019
    13    F    1  pz     Ryd( 4p)     0.00000       1.40485
    14    F    1  dxy    Ryd( 4d)     0.00000       4.51995
    15    F    1  dxy    Ryd( 3d)     0.00000       1.78704
    16    F    1  dxz    Ryd( 4d)     0.00000       4.51995
    17    F    1  dxz    Ryd( 3d)     0.00000       1.78704
    18    F    1  dyz    Ryd( 4d)     0.00000       4.51995
    19    F    1  dyz    Ryd( 3d)     0.00000       1.78704
    20    F    1  dx2y2  Ryd( 4d)     0.00000       4.51995
    21    F    1  dx2y2  Ryd( 3d)     0.00000       1.78704
    22    F    1  dz2    Ryd( 4d)     0.00000       4.51995
    23    F    1  dz2    Ryd( 3d)     0.00000       1.78704

 WARNING:  Population inversion found on atom  F    1


 Summary of Natural Population Analysis:                  
                                                          
                                       Natural Population 
                Natural  -----------------------------------------------
    Atom  No    Charge         Core      Valence    Rydberg      Total
 -----------------------------------------------------------------------
      F    1   -0.50000      1.00000     4.00000    0.00000     5.00000
 =======================================================================
   * Total *   -0.50000      1.00000     4.00000    0.00000     5.00000

                                 Natural Population      
 --------------------------------------------------------
   Core                       1.00000 (100.0000% of   1)
   Valence                    4.00000 (100.0000% of   4)
   Natural Minimal Basis      5.00000 (100.0000% of   5)
   Natural Rydberg Basis      0.00000 (  0.0000% of   5)
 --------------------------------------------------------

    Atom  No          Natural Electron Configuration
 ----------------------------------------------------------------------------
      F    1      [core]2S( 1.00)2p( 3.00)


 Wiberg bond index matrix in the NAO basis:                                    

     Atom    1
     ---- ------
   1.  F  0.0000


 Wiberg bond index, Totals by atom:                                            

     Atom    1
     ---- ------
   1.  F  0.0000


 Atom-atom overlap-weighted NAO bond order:                                    

     Atom    1
     ---- ------
   1.  F  0.0000


 Atom-atom overlap-weighted NAO bond order, Totals by atom:                    

     Atom    1
     ---- ------
   1.  F  0.0000


 MO bond order:                                                                

     Atom    1
     ---- ------
   1.  F  0.0000


 MO atomic valencies:                                                          

     Atom    1
     ---- ------
   1.  F  0.0000


 NATURAL BOND ORBITAL ANALYSIS, alpha spin orbitals:

                       Occupancies       Lewis Structure    Low   High
           Occ.    -------------------  -----------------   occ   occ
  Cycle   Thresh.   Lewis   Non-Lewis     CR  BD  3C  LP    (L)   (NL)   Dev
 =============================================================================
   1(1)    0.90     5.00000   0.00000      1   0   0   4     0      0    0.00
 -----------------------------------------------------------------------------

 Structure accepted: No low occupancy Lewis orbitals

 --------------------------------------------------------
   Core                      1.00000 (100.000% of   1)
   Valence Lewis             4.00000 (100.000% of   4)
  ==================       ============================
   Total Lewis               5.00000 (100.000% of   5)
  -----------------------------------------------------
   Valence non-Lewis         0.00000 (  0.000% of   5)
   Rydberg non-Lewis        -0.00000 ( -0.000% of   5)
  ==================       ============================
   Total non-Lewis          -0.00000 ( -0.000% of   5)
 --------------------------------------------------------


       (Occupancy)   Bond orbital/ Coefficients/ Hybrids
 ---------------------------------------------------------------------------------
     1. (1.00000) CR ( 1) F   1           s(100.00%)
                                            0.0000  1.0000  0.0000  0.0000  0.0000
                                            0.0000  0.0000  0.0000  0.0000  0.0000
                                            0.0000  0.0000  0.0000  0.0000  0.0000
                                            0.0000  0.0000  0.0000  0.0000  0.0000
                                            0.0000  0.0000  0.0000
     2. (1.00000) LP ( 1) F   1           s(100.00%)
                                            1.0000  0.0000  0.0000  0.0000  0.0000
                                            0.0000  0.0000  0.0000  0.0000  0.0000
                                            0.0000  0.0000  0.0000  0.0000  0.0000
                                            0.0000  0.0000  0.0000  0.0000  0.0000
                                            0.0000  0.0000  0.0000
     3. (1.00000) LP ( 2) F   1           s(  0.00%)p 1.00(100.00%)
                                            0.0000  0.0000  0.0000  0.0000  1.0000
                                            0.0000  0.0000  0.0000  0.0000  0.0000
                                            0.0000  0.0000  0.0000  0.0000  0.0000
                                            0.0000  0.0000  0.0000  0.0000  0.0000
                                            0.0000  0.0000  0.0000
     4. (1.00000) LP ( 3) F   1           s(  0.00%)p 1.00(100.00%)
                                            0.0000  0.0000  0.0000  0.0000  0.0000
                                            0.0000  0.0000  1.0000  0.0000  0.0000
                                            0.0000  0.0000  0.0000  0.0000  0.0000
                                            0.0000  0.0000  0.0000  0.0000  0.0000
                                            0.0000  0.0000  0.0000
     5. (1.00000) LP ( 4) F   1           s(  0.00%)p 1.00(100.00%)
                                            0.0000  0.0000  0.0000  0.0000  0.0000
                                            0.0000  0.0000  0.0000  0.0000  0.0000
                                            1.0000  0.0000  0.0000  0.0000  0.0000
                                            0.0000  0.0000  0.0000  0.0000  0.0000
                                            0.0000  0.0000  0.0000
     6. (0.00000) RY*( 1) F   1           s(100.00%)
     7. (0.00000) RY*( 2) F   1           s(100.00%)
     8. (0.00000) RY*( 3) F   1           s(  0.00%)p 1.00(100.00%)
     9. (0.00000) RY*( 4) F   1           s(  0.00%)p 1.00(100.00%)
    10. (0.00000) RY*( 5) F   1           s(  0.00%)p 1.00(100.00%)
    11. (0.00000) RY*( 6) F   1           s(  0.00%)p 1.00(100.00%)
    12. (0.00000) RY*( 7) F   1           s(  0.00%)p 1.00(100.00%)
    13. (0.00000) RY*( 8) F   1           s(  0.00%)p 1.00(100.00%)
    14. (0.00000) RY*( 9) F   1           s(  0.00%)p 0.00(  0.00%)d 1.00(100.00%)
    15. (0.00000) RY*(10) F   1           s(  0.00%)p 0.00(  0.00%)d 1.00(100.00%)
    16. (0.00000) RY*(11) F   1           s(  0.00%)p 0.00(  0.00%)d 1.00(100.00%)
    17. (0.00000) RY*(12) F   1           s(  0.00%)p 0.00(  0.00%)d 1.00(100.00%)
    18. (0.00000) RY*(13) F   1           s(  0.00%)p 0.00(  0.00%)d 1.00(100.00%)
    19. (0.00000) RY*(14) F   1           s(  0.00%)p 0.00(  0.00%)d 1.00(100.00%)
    20. (0.00000) RY*(15) F   1           s(  0.00%)p 0.00(  0.00%)d 1.00(100.00%)
    21. (0.00000) RY*(16) F   1           s(  0.00%)p 0.00(  0.00%)d 1.00(100.00%)
    22. (0.00000) RY*(17) F   1           s(  0.00%)p 0.00(  0.00%)d 1.00(100.00%)
    23. (0.00000) RY*(18) F   1           s(  0.00%)p 0.00(  0.00%)d 1.00(100.00%)


 NHO Directionality and "Bond Bending" (deviations from line of nuclear centers)

         [Thresholds for printing:  angular deviation  >  1.0 degree]
                                    hybrid p-character > 25.0%
                                    orbital occupancy  >  0.10e

                                Line of Centers        Hybrid 1              Hybrid 2
                                ---------------  -------------------   ------------------
                NBO               Theta   Phi    Theta   Phi    Dev    Theta   Phi    Dev
 ========================================================================================
     3. LP (   2) F   1             --     --     90.0    0.0   --       --     --    --
     4. LP (   3) F   1             --     --     90.0   90.0   --       --     --    --
     5. LP (   4) F   1             --     --      0.0    0.0   --       --     --    --


 Second Order Perturbation Theory Analysis of Fock Matrix in NBO Basis

     Threshold for printing:   0.25 kcal/mol
                                                                              E(2)  E(j)-E(i) F(i,j)
         Donor NBO (i)                     Acceptor NBO (j)                 kcal/mol   a.u.    a.u. 
 ===================================================================================================

 within unit  1
       None above threshold


 Natural Bond Orbitals (Summary):

                                                            Principal Delocalizations
           NBO                        Occupancy    Energy   (geminal,vicinal,remote)
 ====================================================================================
 Molecular unit  1  (F)
     1. CR (   1) F   1                  1.00000   -23.25050   
     2. LP (   1) F   1                  1.00000    -1.73783   
     3. LP (   2) F   1                  1.00000     0.00295   
     4. LP (   3) F   1                  1.00000     0.00295   
     5. LP (   4) F   1                  1.00000     0.00295   
     6. RY*(   1) F   1                  0.00000     1.50721   
     7. RY*(   2) F   1                  0.00000     1.22061   
     8. RY*(   3) F   1                  0.00000     0.71019   
     9. RY*(   4) F   1                  0.00000     1.40485   
    10. RY*(   5) F   1                  0.00000     0.71019   
    11. RY*(   6) F   1                  0.00000     1.40485   
    12. RY*(   7) F   1                  0.00000     0.71019   
    13. RY*(   8) F   1                  0.00000     1.40485   
    14. RY*(   9) F   1                  0.00000     4.51995   
    15. RY*(  10) F   1                  0.00000     1.78704   
    16. RY*(  11) F   1                  0.00000     4.51995   
    17. RY*(  12) F   1                  0.00000     1.78704   
    18. RY*(  13) F   1                  0.00000     4.51995   
    19. RY*(  14) F   1                  0.00000     1.78704   
    20. RY*(  15) F   1                  0.00000     4.51995   
    21. RY*(  16) F   1                  0.00000     1.78704   
    22. RY*(  17) F   1                  0.00000     4.51995   
    23. RY*(  18) F   1                  0.00000     1.78704   
       -------------------------------
              Total Lewis    5.00000  (100.0000%)
        Valence non-Lewis    0.00000  (  0.0000%)
        Rydberg non-Lewis    0.00000  (  0.0000%)
       -------------------------------
            Total unit  1    5.00000  (100.0000%)
           Charge unit  1   -0.50000


 ***************************************************
 *******         Beta  spin orbitals         *******
 ***************************************************


 NATURAL POPULATIONS:  Natural atomic orbital occupancies 
                                                          
   NAO  Atom  No  lang   Type(AO)    Occupancy      Energy
 ----------------------------------------------------------
     1    F    1  S      Cor( 2S)     1.00000      -1.73783
     2    F    1  S      Val( 1S)     1.00000     -23.25050
     3    F    1  S      Ryd( 4S)     0.00000       1.50721
     4    F    1  S      Ryd( 3S)     0.00000       1.22061
     5    F    1  px     Val( 2p)     1.00000       0.00295
     6    F    1  px     Ryd( 3p)     0.00000       0.71019
     7    F    1  px     Ryd( 4p)     0.00000       1.40485
     8    F    1  py     Val( 2p)     1.00000       0.00295
     9    F    1  py     Ryd( 3p)     0.00000       0.71019
    10    F    1  py     Ryd( 4p)     0.00000       1.40485
    11    F    1  pz     Val( 2p)     1.00000       0.00295
    12    F    1  pz     Ryd( 3p)     0.00000       0.71019
    13    F    1  pz     Ryd( 4p)     0.00000       1.40485
    14    F    1  dxy    Ryd( 4d)     0.00000       4.51995
    15    F    1  dxy    Ryd( 3d)     0.00000       1.78704
    16    F    1  dxz    Ryd( 4d)     0.00000       4.51995
    17    F    1  dxz    Ryd( 3d)     0.00000       1.78704
    18    F    1  dyz    Ryd( 4d)     0.00000       4.51995
    19    F    1  dyz    Ryd( 3d)     0.00000       1.78704
    20    F    1  dx2y2  Ryd( 4d)     0.00000       4.51995
    21    F    1  dx2y2  Ryd( 3d)     0.00000       1.78704
    22    F    1  dz2    Ryd( 4d)     0.00000       4.51995
    23    F    1  dz2    Ryd( 3d)     0.00000       1.78704

 WARNING:  Population inversion found on atom  F    1


 Summary of Natural Population Analysis:                  
                                                          
                                       Natural Population 
                Natural  -----------------------------------------------
    Atom  No    Charge         Core      Valence    Rydberg      Total
 -----------------------------------------------------------------------
      F    1   -0.50000      1.00000     4.00000    0.00000     5.00000
 =======================================================================
   * Total *   -0.50000      1.00000     4.00000    0.00000     5.00000

                                 Natural Population      
 --------------------------------------------------------
   Core                       1.00000 (100.0000% of   1)
   Valence                    4.00000 (100.0000% of   4)
   Natural Minimal Basis      5.00000 (100.0000% of   5)
   Natural Rydberg Basis      0.00000 (  0.0000% of   5)
 --------------------------------------------------------

    Atom  No          Natural Electron Configuration
 ----------------------------------------------------------------------------
      F    1      [core]2p( 3.00)


 Wiberg bond index matrix in the NAO basis:                                    

     Atom    1
     ---- ------
   1.  F  0.0000


 Wiberg bond index, Totals by atom:                                            

     Atom    1
     ---- ------
   1.  F  0.0000


 Atom-atom overlap-weighted NAO bond order:                                    

     Atom    1
     ---- ------
   1.  F  0.0000


 Atom-atom overlap-weighted NAO bond order, Totals by atom:                    

     Atom    1
     ---- ------
   1.  F  0.0000


 MO bond order:                                                                

     Atom    1
     ---- ------
   1.  F  0.0000


 MO atomic valencies:                                                          

     Atom    1
     ---- ------
   1.  F  0.0000


 NATURAL BOND ORBITAL ANALYSIS, beta spin orbitals:

                       Occupancies       Lewis Structure    Low   High
           Occ.    -------------------  -----------------   occ   occ
  Cycle   Thresh.   Lewis   Non-Lewis     CR  BD  3C  LP    (L)   (NL)   Dev
 =============================================================================
   1(1)    0.90     5.00000  -0.00000      1   0   0   4     0      0    0.00
 -----------------------------------------------------------------------------

 Structure accepted: No low occupancy Lewis orbitals

 --------------------------------------------------------
   Core                      1.00000 (100.000% of   1)
   Valence Lewis             4.00000 (100.000% of   4)
  ==================       ============================
   Total Lewis               5.00000 (100.000% of   5)
  -----------------------------------------------------
   Valence non-Lewis         0.00000 (  0.000% of   5)
   Rydberg non-Lewis        -0.00000 ( -0.000% of   5)
  ==================       ============================
   Total non-Lewis          -0.00000 ( -0.000% of   5)
 --------------------------------------------------------


       (Occupancy)   Bond orbital/ Coefficients/ Hybrids
 ---------------------------------------------------------------------------------
     1. (1.00000) CR ( 1) F   1           s(100.00%)
                                            1.0000  0.0000  0.0000  0.0000  0.0000
                                            0.0000  0.0000  0.0000  0.0000  0.0000
                                            0.0000  0.0000  0.0000  0.0000  0.0000
                                            0.0000  0.0000  0.0000  0.0000  0.0000
                                            0.0000  0.0000  0.0000
     2. (1.00000) LP ( 1) F   1           s(100.00%)
                                            0.0000  1.0000  0.0000  0.0000  0.0000
                                            0.0000  0.0000  0.0000  0.0000  0.0000
                                            0.0000  0.0000  0.0000  0.0000  0.0000
                                            0.0000  0.0000  0.0000  0.0000  0.0000
                                            0.0000  0.0000  0.0000
     3. (1.00000) LP ( 2) F   1           s(  0.00%)p 1.00(100.00%)
                                            0.0000  0.0000  0.0000  0.0000  1.0000
                                            0.0000  0.0000  0.0000  0.0000  0.0000
                                            0.0000  0.0000  0.0000  0.0000  0.0000
                                            0.0000  0.0000  0.0000  0.0000  0.0000
                                            0.0000  0.0000  0.0000
     4. (1.00000) LP ( 3) F   1           s(  0.00%)p 1.00(100.00%)
                                            0.0000  0.0000  0.0000  0.0000  0.0000
                                            0.0000  0.0000  1.0000  0.0000  0.0000
                                            0.0000  0.0000  0.0000  0.0000  0.0000
                                            0.0000  0.0000  0.0000  0.0000  0.0000
                                            0.0000  0.0000  0.0000
     5. (1.00000) LP ( 4) F   1           s(  0.00%)p 1.00(100.00%)
                                            0.0000  0.0000  0.0000  0.0000  0.0000
                                            0.0000  0.0000  0.0000  0.0000  0.0000
                                            1.0000  0.0000  0.0000  0.0000  0.0000
                                            0.0000  0.0000  0.0000  0.0000  0.0000
                                            0.0000  0.0000  0.0000
     6. (0.00000) RY*( 1) F   1           s(100.00%)
     7. (0.00000) RY*( 2) F   1           s(100.00%)
     8. (0.00000) RY*( 3) F   1           s(  0.00%)p 1.00(100.00%)
     9. (0.00000) RY*( 4) F   1           s(  0.00%)p 1.00(100.00%)
    10. (0.00000) RY*( 5) F   1           s(  0.00%)p 1.00(100.00%)
    11. (0.00000) RY*( 6) F   1           s(  0.00%)p 1.00(100.00%)
    12. (0.00000) RY*( 7) F   1           s(  0.00%)p 1.00(100.00%)
    13. (0.00000) RY*( 8) F   1           s(  0.00%)p 1.00(100.00%)
    14. (0.00000) RY*( 9) F   1           s(  0.00%)p 0.00(  0.00%)d 1.00(100.00%)
    15. (0.00000) RY*(10) F   1           s(  0.00%)p 0.00(  0.00%)d 1.00(100.00%)
    16. (0.00000) RY*(11) F   1           s(  0.00%)p 0.00(  0.00%)d 1.00(100.00%)
    17. (0.00000) RY*(12) F   1           s(  0.00%)p 0.00(  0.00%)d 1.00(100.00%)
    18. (0.00000) RY*(13) F   1           s(  0.00%)p 0.00(  0.00%)d 1.00(100.00%)
    19. (0.00000) RY*(14) F   1           s(  0.00%)p 0.00(  0.00%)d 1.00(100.00%)
    20. (0.00000) RY*(15) F   1           s(  0.00%)p 0.00(  0.00%)d 1.00(100.00%)
    21. (0.00000) RY*(16) F   1           s(  0.00%)p 0.00(  0.00%)d 1.00(100.00%)
    22. (0.00000) RY*(17) F   1           s(  0.00%)p 0.00(  0.00%)d 1.00(100.00%)
    23. (0.00000) RY*(18) F   1           s(  0.00%)p 0.00(  0.00%)d 1.00(100.00%)


 NHO Directionality and "Bond Bending" (deviations from line of nuclear centers)

         [Thresholds for printing:  angular deviation  >  1.0 degree]
                                    hybrid p-character > 25.0%
                                    orbital occupancy  >  0.10e

                                Line of Centers        Hybrid 1              Hybrid 2
                                ---------------  -------------------   ------------------
                NBO               Theta   Phi    Theta   Phi    Dev    Theta   Phi    Dev
 ========================================================================================
     3. LP (   2) F   1             --     --     90.0    0.0   --       --     --    --
     4. LP (   3) F   1             --     --     90.0   90.0   --       --     --    --
     5. LP (   4) F   1             --     --      0.0    0.0   --       --     --    --


 Second Order Perturbation Theory Analysis of Fock Matrix in NBO Basis

     Threshold for printing:   0.25 kcal/mol
                                                                              E(2)  E(j)-E(i) F(i,j)
         Donor NBO (i)                     Acceptor NBO (j)                 kcal/mol   a.u.    a.u. 
 ===================================================================================================

 within unit  1
       None above threshold


 Natural Bond Orbitals (Summary):

                                                            Principal Delocalizations
           NBO                        Occupancy    Energy   (geminal,vicinal,remote)
 ====================================================================================
 Molecular unit  1  (F)
     1. CR (   1) F   1                  1.00000    -1.73783   
     2. LP (   1) F   1                  1.00000   -23.25050   
     3. LP (   2) F   1                  1.00000     0.00295   
     4. LP (   3) F   1                  1.00000     0.00295   
     5. LP (   4) F   1                  1.00000     0.00295   
     6. RY*(   1) F   1                  0.00000     1.50721   
     7. RY*(   2) F   1                  0.00000     1.22061   
     8. RY*(   3) F   1                  0.00000     0.71019   
     9. RY*(   4) F   1                  0.00000     1.40485   
    10. RY*(   5) F   1                  0.00000     0.71019   
    11. RY*(   6) F   1                  0.00000     1.40485   
    12. RY*(   7) F   1                  0.00000     0.71019   
    13. RY*(   8) F   1                  0.00000     1.40485   
    14. RY*(   9) F   1                  0.00000     4.51995   
    15. RY*(  10) F   1                  0.00000     1.78704   
    16. RY*(  11) F   1                  0.00000     4.51995   
    17. RY*(  12) F   1                  0.00000     1.78704   
    18. RY*(  13) F   1                  0.00000     4.51995   
    19. RY*(  14) F   1                  0.00000     1.78704   
    20. RY*(  15) F   1                  0.00000     4.51995   
    21. RY*(  16) F   1                  0.00000     1.78704   
    22. RY*(  17) F   1                  0.00000     4.51995   
    23. RY*(  18) F   1                  0.00000     1.78704   
       -------------------------------
              Total Lewis    5.00000  (100.0000%)
        Valence non-Lewis    0.00000  (  0.0000%)
        Rydberg non-Lewis   -0.00000  ( -0.0000%)
       -------------------------------
            Total unit  1    5.00000  (100.0000%)
           Charge unit  1   -0.50000
 Leave Link  607 at Sat Jan  1 18:25:17 2005, MaxMem=   524288000 cpu:               2.0 elap:               0.3
 (Enter /home/ubuntu/g16/l701.exe)
 ... and contract with generalized density number  0.
 Compute integral first derivatives.
 Leave Link  701 at Sat Jan  1 18:25:17 2005, MaxMem=   524288000 cpu:               1.1 elap:               0.2
 (Enter /home/ubuntu/g16/l702.exe)
 L702 exits ... SP integral derivatives will be done elsewhere.
 Leave Link  702 at Sat Jan  1 18:25:17 2005, MaxMem=   524288000 cpu:               0.2 elap:               0.0
 (Enter /home/ubuntu/g16/l703.exe)
 Integral derivatives from FoFJK, PRISM(SPDF).
 Compute integral first derivatives, UseDBF=F ICtDFT=           0.
 Calling FoFJK, ICntrl=      2127 FMM=F ISym2X=1 I1Cent= 0 IOpClX= 1 NMat=1 NMatS=1 NMatT=0.
 FoFJK:  IHMeth= 1 ICntrl=    2127 DoSepK=F KAlg= 0 I1Cent=           0 FoldK=F
 IRaf=         0 NMat=       1 IRICut=       1 DoRegI=T DoRafI=F ISym2E= 1 IDoP0=0 IntGTp=1.
 FoFCou: FMM=F IPFlag=           0 FMFlag=      100000 FMFlg1=         800
         NFxFlg=           0 DoJE=F BraDBF=F KetDBF=F FulRan=T
         wScrn=  0.000000 ICntrl=      2127 IOpCl=  1 I1Cent=           0 NGrid=           0
         NMat0=    1 NMatS0=      1 NMatT0=    0 NMatD0=    1 NMtDS0=    0 NMtDT0=    0
 Petite list used in FoFCou.
 Leave Link  703 at Sat Jan  1 18:25:17 2005, MaxMem=   524288000 cpu:               1.4 elap:               0.2
 (Enter /home/ubuntu/g16/l716.exe)
 Dipole        = 0.00000000D+00 0.00000000D+00 0.00000000D+00
 ***** Axes restored to original set *****
 -------------------------------------------------------------------
 Center     Atomic                   Forces (Hartrees/Bohr)
 Number     Number              X              Y              Z
 -------------------------------------------------------------------
      1        9          -0.000000000   -0.000000000   -0.000000000
 -------------------------------------------------------------------
 Cartesian Forces:  Max     0.000000000 RMS     0.000000000
 Z-matrix is all fixed cartesians, so copy forces.
 Leave Link  716 at Sat Jan  1 18:25:17 2005, MaxMem=   524288000 cpu:               0.2 elap:               0.0
 (Enter /home/ubuntu/g16/l103.exe)

 GradGradGradGradGradGradGradGradGradGradGradGradGradGradGradGradGradGrad
 Berny optimization.
 Search for a local minimum.
 Step number   1 out of a maximum of  100
 All quantities printed in internal units (Hartrees-Bohrs-Radians)
 RMS Force = .00000D+00 SwitMx=.10000D-02 MixMth= 2
 Mixed Optimization -- En-DIIS/RFO-DIIS
 Second derivative matrix not updated -- first step.
 The second derivative matrix:
                          X1        Y1        Z1
           X1           0.00000
           Y1           0.00000   0.00000
           Z1           0.00000   0.00000   0.00000
 ITU=  0
     Eigenvalues --- 
 RFO step:  Lambda=-1.41268366D+00 EMin=-1.41268366D+00
 Mixed    0 eigenvectors in step.  Raw Step.Grad=  0.00D+00.
 RFO eigenvector is Hessian eigenvector with negative curvature.
 Taking step of  0.00D+00 in eigenvector direction(s).  Step.Grad= -0.00D+00.
 ClnCor:  largest displacement from symmetrization is 0.00D+00 for atom     0.
 Linear search not attempted -- first point.
 ClnCor:  largest displacement from symmetrization is 0.00D+00 for atom     0.
 B after Tr=     0.000000    0.000000    0.000000
         Rot=    1.000000    0.000000    0.000000    0.000000 Ang=   0.00 deg.
 Variable       Old X    -DE/DX   Delta X   Delta X   Delta X     New X
                                 (Linear)    (Quad)   (Total)
    X1       -1.41268  -0.00000   0.00000   0.00000   0.00000  -1.41268
    Y1       -0.99721  -0.00000   0.00000   0.00000   0.00000  -0.99721
    Z1        0.00756  -0.00000   0.00000   0.00000   0.00000   0.00756
         Item               Value     Threshold  Converged?
 Maximum Force            0.000000     0.000450     YES
 RMS     Force            0.000000     0.000300     YES
 Maximum Displacement     0.000000     0.001800     YES
 RMS     Displacement     0.000000     0.001200     YES
 Predicted change in Energy=-0.000000D+00
 Lowest energy point so far.  Saving SCF results.
 GradGradGradGradGradGradGradGradGradGradGradGradGradGradGradGradGradGrad

 Leave Link  103 at Sat Jan  1 18:25:17 2005, MaxMem=   524288000 cpu:               0.4 elap:               0.1
 (Enter /home/ubuntu/g16/l202.exe)
                          Input orientation:                          
 ---------------------------------------------------------------------
 Center     Atomic      Atomic             Coordinates (Angstroms)
 Number     Number       Type             X           Y           Z
 ---------------------------------------------------------------------
      1          9           0       -0.747560   -0.527700    0.004000
 ---------------------------------------------------------------------
 Stoichiometry    F(1-)
 Framework group  OH[O(F)]
 Deg. of freedom     0
 Full point group                 OH      NOp  48
 RotChk:  IX=0 Diff= 2.00D+00
 Largest Abelian subgroup         D2H     NOp   8
 Largest concise Abelian subgroup C1      NOp   1
                         Standard orientation:                         
 ---------------------------------------------------------------------
 Center     Atomic      Atomic             Coordinates (Angstroms)
 Number     Number       Type             X           Y           Z
 ---------------------------------------------------------------------
      1          9           0        0.000000    0.000000    0.000000
 ---------------------------------------------------------------------
 Leave Link  202 at Sat Jan  1 18:25:17 2005, MaxMem=   524288000 cpu:               0.1 elap:               0.0
 (Enter /home/ubuntu/g16/l301.exe)
 Standard basis: Aug-CC-pVDZ (5D, 7F)
 Ernie: Thresh=  0.10000D-02 Tol=  0.10000D-05 Strict=F.
 Ernie:  2 primitive shells out of 25 were deleted.
 There are    10 symmetry adapted cartesian basis functions of AG  symmetry.
 There are     2 symmetry adapted cartesian basis functions of B1G symmetry.
 There are     2 symmetry adapted cartesian basis functions of B2G symmetry.
 There are     2 symmetry adapted cartesian basis functions of B3G symmetry.
 There are     0 symmetry adapted cartesian basis functions of AU  symmetry.
 There are     3 symmetry adapted cartesian basis functions of B1U symmetry.
 There are     3 symmetry adapted cartesian basis functions of B2U symmetry.
 There are     3 symmetry adapted cartesian basis functions of B3U symmetry.
 There are     8 symmetry adapted basis functions of AG  symmetry.
 There are     2 symmetry adapted basis functions of B1G symmetry.
 There are     2 symmetry adapted basis functions of B2G symmetry.
 There are     2 symmetry adapted basis functions of B3G symmetry.
 There are     0 symmetry adapted basis functions of AU  symmetry.
 There are     3 symmetry adapted basis functions of B1U symmetry.
 There are     3 symmetry adapted basis functions of B2U symmetry.
 There are     3 symmetry adapted basis functions of B3U symmetry.
    23 basis functions,    43 primitive gaussians,    25 cartesian basis functions
     5 alpha electrons        5 beta electrons
       nuclear repulsion energy         0.0000000000 Hartrees.
 IExCor=  402 DFT=T Ex+Corr=B3LYP ExCW=0 ScaHFX=  0.200000
 ScaDFX=  0.800000  0.720000  1.000000  0.810000 ScalE2=  1.000000  1.000000
 IRadAn=      5 IRanWt=     -1 IRanGd=            0 ICorTp=0 IEmpDi=  4
 NAtoms=    1 NActive=    1 NUniq=    1 SFac= 1.00D+00 NAtFMM=   60 NAOKFM=F Big=F
 Integral buffers will be    131072 words long.
 Raffenetti 2 integral format.
 Two-electron integral symmetry is turned on.
 Leave Link  301 at Sat Jan  1 18:25:17 2005, MaxMem=   524288000 cpu:               0.3 elap:               0.1
 (Enter /home/ubuntu/g16/l302.exe)
 NPDir=0 NMtPBC=     1 NCelOv=     1 NCel=       1 NClECP=     1 NCelD=      1
         NCelK=      1 NCelE2=     1 NClLst=     1 CellRange=     0.0.
 One-electron integrals computed using PRISM.
 One-electron integral symmetry used in STVInt
 NBasis=    23 RedAO= T EigKep=  1.03D-01  NBF=     8     2     2     2     0     3     3     3
 NBsUse=    23 1.00D-06 EigRej= -1.00D+00 NBFU=     8     2     2     2     0     3     3     3
 Precomputing XC quadrature grid using
 IXCGrd= 4 IRadAn=           5 IRanWt=          -1 IRanGd=           0 AccXCQ= 0.00D+00.
 Generated NRdTot=       0 NPtTot=           0 NUsed=           0 NTot=          32
 NSgBfM=    25    25    25    25    25 MxSgAt=     1 MxSgA2=     1.
 Leave Link  302 at Sat Jan  1 18:25:18 2005, MaxMem=   524288000 cpu:               1.0 elap:               0.2
 (Enter /home/ubuntu/g16/l303.exe)
 DipDrv:  MaxL=1.
 Leave Link  303 at Sat Jan  1 18:25:18 2005, MaxMem=   524288000 cpu:               0.2 elap:               0.0
 (Enter /home/ubuntu/g16/l401.exe)
 Initial guess from the checkpoint file:  "F-_UB3LYP-aug-cc-pVDZ-Opt.chk"
 B after Tr=     0.000000    0.000000    0.000000
         Rot=    1.000000    0.000000    0.000000    0.000000 Ang=   0.00 deg.
 Guess basis will be translated and rotated to current coordinates.
 JPrj=2 DoOrth=T DoCkMO=T.
 Initial guess orbital symmetries:
 Alpha Orbitals:
       Occupied  (A1G) (A1G) (T1U) (T1U) (T1U)
       Virtual   (A1G) (T1U) (T1U) (T1U) (T2G) (T2G) (T2G) (EG)
                 (EG) (T1U) (T1U) (T1U) (A1G) (T2G) (T2G) (T2G)
                 (EG) (EG)
 Beta  Orbitals:
       Occupied  (A1G) (A1G) (T1U) (T1U) (T1U)
       Virtual   (A1G) (T1U) (T1U) (T1U) (T2G) (T2G) (T2G) (EG)
                 (EG) (T1U) (T1U) (T1U) (A1G) (T2G) (T2G) (T2G)
                 (EG) (EG)
 The electronic state of the initial guess is 1-A1G.
 Initial guess <Sx>= 0.0000 <Sy>= 0.0000 <Sz>= 0.0000 <S**2>=-0.0000 S=-0.0000
 Leave Link  401 at Sat Jan  1 18:25:18 2005, MaxMem=   524288000 cpu:               0.4 elap:               0.1
 (Enter /home/ubuntu/g16/l502.exe)
 Keep R1 and R2 ints in memory in symmetry-blocked form, NReq=6076112.
 FoFCou: FMM=F IPFlag=           0 FMFlag=           0 FMFlg1=           0
         NFxFlg=           0 DoJE=F BraDBF=F KetDBF=F FulRan=T
         wScrn=  0.000000 ICntrl=       600 IOpCl=  0 I1Cent=           0 NGrid=           0
         NMat0=    1 NMatS0=    276 NMatT0=    0 NMatD0=    1 NMtDS0=    0 NMtDT0=    0
 Petite list used in FoFCou.
 UHF open shell SCF:
 Using DIIS extrapolation, IDIIS=  1040.
 NGot=   524288000 LenX=   524271508 LenY=   524270442
 Requested convergence on RMS density matrix=1.00D-08 within 128 cycles.
 Requested convergence on MAX density matrix=1.00D-06.
 Requested convergence on             energy=1.00D-06.
 No special actions if energy rises.

 Cycle   1  Pass 1  IDiag  1:
 E= -99.8703727210839    
 DIIS: error= 2.36D-10 at cycle   1 NSaved=   1.
 NSaved= 1 IEnMin= 1 EnMin= -99.8703727210839     IErMin= 1 ErrMin= 2.36D-10
 ErrMax= 2.36D-10  0.00D+00 EMaxC= 1.00D-01 BMatC= 4.00D-18 BMatP= 4.00D-18
 IDIUse=1 WtCom= 1.00D+00 WtEn= 0.00D+00
 Coeff-Com:  0.100D+01
 Coeff:      0.100D+01
 Gap=     0.397 Goal=   None    Shift=    0.000
 Skip diagonalization as Alpha Fock matrix is already diagonal.
 Gap=     0.397 Goal=   None    Shift=    0.000
 Skip diagonalization as Beta Fock matrix is already diagonal.
 RMSDP=0.00D+00 MaxDP=0.00D+00              OVMax= 0.00D+00

 SCF Done:  E(UB3LYP) =  -99.8703727211     A.U. after    1 cycles
            NFock=  1  Conv=0.00D+00     -V/T= 2.0056
 <Sx>= 0.0000 <Sy>= 0.0000 <Sz>= 0.0000 <S**2>=-0.0000 S=-0.0000
 <L.S>= 0.000000000000E+00
 KE= 9.931051303796D+01 PE=-2.429132573706D+02 EE= 4.373237161157D+01
 Annihilation of the first spin contaminant:
 S**2 before annihilation    -0.0000,   after     0.0000
 Leave Link  502 at Sat Jan  1 18:25:18 2005, MaxMem=   524288000 cpu:               1.2 elap:               0.2
 (Enter /home/ubuntu/g16/l701.exe)
 ... and contract with generalized density number  0.
 Compute integral first derivatives.
 Leave Link  701 at Sat Jan  1 18:25:18 2005, MaxMem=   524288000 cpu:               1.1 elap:               0.2
 (Enter /home/ubuntu/g16/l702.exe)
 L702 exits ... SP integral derivatives will be done elsewhere.
 Leave Link  702 at Sat Jan  1 18:25:18 2005, MaxMem=   524288000 cpu:               0.2 elap:               0.0
 (Enter /home/ubuntu/g16/l703.exe)
 Integral derivatives from FoFJK, PRISM(SPDF).
 Compute integral first derivatives, UseDBF=F ICtDFT=           0.
 Calling FoFJK, ICntrl=      2127 FMM=F ISym2X=1 I1Cent= 0 IOpClX= 1 NMat=1 NMatS=1 NMatT=0.
 FoFJK:  IHMeth= 1 ICntrl=    2127 DoSepK=F KAlg= 0 I1Cent=           0 FoldK=F
 IRaf=         0 NMat=       1 IRICut=       1 DoRegI=T DoRafI=F ISym2E= 1 IDoP0=0 IntGTp=1.
 FoFCou: FMM=F IPFlag=           0 FMFlag=      100000 FMFlg1=         800
         NFxFlg=           0 DoJE=F BraDBF=F KetDBF=F FulRan=T
         wScrn=  0.000000 ICntrl=      2127 IOpCl=  1 I1Cent=           0 NGrid=           0
         NMat0=    1 NMatS0=      1 NMatT0=    0 NMatD0=    1 NMtDS0=    0 NMtDT0=    0
 Petite list used in FoFCou.
 Leave Link  703 at Sat Jan  1 18:25:18 2005, MaxMem=   524288000 cpu:               1.4 elap:               0.2
 (Enter /home/ubuntu/g16/l716.exe)
 Dipole        = 0.00000000D+00 0.00000000D+00 0.00000000D+00
 ***** Axes restored to original set *****
 -------------------------------------------------------------------
 Center     Atomic                   Forces (Hartrees/Bohr)
 Number     Number              X              Y              Z
 -------------------------------------------------------------------
      1        9          -0.000000000   -0.000000000   -0.000000000
 -------------------------------------------------------------------
 Cartesian Forces:  Max     0.000000000 RMS     0.000000000
 Leave Link  716 at Sat Jan  1 18:25:18 2005, MaxMem=   524288000 cpu:               0.3 elap:               0.1
 (Enter /home/ubuntu/g16/l103.exe)

 GradGradGradGradGradGradGradGradGradGradGradGradGradGradGradGradGradGrad
 Berny optimization.
 Using GEDIIS/GDIIS optimizer.
 Search for a local minimum.
 Step number   2 out of a maximum of  100
 All quantities printed in internal units (Hartrees-Bohrs-Radians)
 RMS Force = .00000D+00 SwitMx=.10000D-02 MixMth= 2
 Mixed Optimization -- En-DIIS/RFO-DIIS
 Swapping is turned off.
 Update second derivatives using D2CorN and points    2
 The second derivative matrix:
[...]
    19    F    1  dyz    Ryd( 4d)     0.00000       3.90913
    20    F    1  dx2y2  Ryd( 3d)     0.00000       2.39785
    21    F    1  dx2y2  Ryd( 4d)     0.00000       3.90913
    22    F    1  dz2    Ryd( 3d)     0.00000       2.39785
    23    F    1  dz2    Ryd( 4d)     0.00000       3.90913

 WARNING:  Population inversion found on atom  F    1


 Summary of Natural Population Analysis:                  
                                                          
                                       Natural Population 
                Natural  -----------------------------------------------
    Atom  No    Charge         Core      Valence    Rydberg      Total
 -----------------------------------------------------------------------
      F    1   -0.50000      1.00000     4.00000    0.00000     5.00000
 =======================================================================
   * Total *   -0.50000      1.00000     4.00000    0.00000     5.00000

                                 Natural Population      
 --------------------------------------------------------
   Core                       1.00000 (100.0000% of   1)
   Valence                    4.00000 (100.0000% of   4)
   Natural Minimal Basis      5.00000 (100.0000% of   5)
   Natural Rydberg Basis      0.00000 (  0.0000% of   5)
 --------------------------------------------------------

    Atom  No          Natural Electron Configuration
 ----------------------------------------------------------------------------
      F    1      [core]2S( 1.00)2p( 3.00)


 Wiberg bond index matrix in the NAO basis:                                    

     Atom    1
     ---- ------
   1.  F  0.0000


 Wiberg bond index, Totals by atom:                                            

     Atom    1
     ---- ------
   1.  F  0.0000


 Atom-atom overlap-weighted NAO bond order:                                    

     Atom    1
     ---- ------
   1.  F  0.0000


 Atom-atom overlap-weighted NAO bond order, Totals by atom:                    

     Atom    1
     ---- ------
   1.  F  0.0000


 MO bond order:                                                                

     Atom    1
     ---- ------
   1.  F  0.0000


 MO atomic valencies:                                                          

     Atom    1
     ---- ------
   1.  F  0.0000


 NATURAL BOND ORBITAL ANALYSIS, beta spin orbitals:

                       Occupancies       Lewis Structure    Low   High
           Occ.    -------------------  -----------------   occ   occ
  Cycle   Thresh.   Lewis   Non-Lewis     CR  BD  3C  LP    (L)   (NL)   Dev
 =============================================================================
   1(1)    0.90     5.00000  -0.00000      1   0   0   4     0      0    0.00
 -----------------------------------------------------------------------------

 Structure accepted: No low occupancy Lewis orbitals

 --------------------------------------------------------
   Core                      1.00000 (100.000% of   1)
   Valence Lewis             4.00000 (100.000% of   4)
  ==================       ============================
   Total Lewis               5.00000 (100.000% of   5)
  -----------------------------------------------------
   Valence non-Lewis         0.00000 (  0.000% of   5)
   Rydberg non-Lewis        -0.00000 ( -0.000% of   5)
  ==================       ============================
   Total non-Lewis          -0.00000 ( -0.000% of   5)
 --------------------------------------------------------


       (Occupancy)   Bond orbital/ Coefficients/ Hybrids
 ---------------------------------------------------------------------------------
     1. (1.00000) CR ( 1) F   1           s(100.00%)
                                            1.0000  0.0000  0.0000  0.0000  0.0000
                                            0.0000  0.0000  0.0000  0.0000  0.0000
                                            0.0000  0.0000  0.0000  0.0000  0.0000
                                            0.0000  0.0000  0.0000  0.0000  0.0000
                                            0.0000  0.0000  0.0000
     2. (1.00000) LP ( 1) F   1           s(100.00%)
                                            0.0000  1.0000  0.0000  0.0000  0.0000
                                            0.0000  0.0000  0.0000  0.0000  0.0000
                                            0.0000  0.0000  0.0000  0.0000  0.0000
                                            0.0000  0.0000  0.0000  0.0000  0.0000
                                            0.0000  0.0000  0.0000
     3. (1.00000) LP ( 2) F   1           s(  0.00%)p 1.00(100.00%)
                                            0.0000  0.0000  0.0000  0.0000  1.0000
                                            0.0000  0.0000  0.0000  0.0000  0.0000
                                            0.0000  0.0000  0.0000  0.0000  0.0000
                                            0.0000  0.0000  0.0000  0.0000  0.0000
                                            0.0000  0.0000  0.0000
     4. (1.00000) LP ( 3) F   1           s(  0.00%)p 1.00(100.00%)
                                            0.0000  0.0000  0.0000  0.0000  0.0000
                                            0.0000  0.0000  1.0000  0.0000  0.0000
                                            0.0000  0.0000  0.0000  0.0000  0.0000
                                            0.0000  0.0000  0.0000  0.0000  0.0000
                                            0.0000  0.0000  0.0000
     5. (1.00000) LP ( 4) F   1           s(  0.00%)p 1.00(100.00%)
                                            0.0000  0.0000  0.0000  0.0000  0.0000
                                            0.0000  0.0000  0.0000  0.0000  0.0000
                                            1.0000  0.0000  0.0000  0.0000  0.0000
                                            0.0000  0.0000  0.0000  0.0000  0.0000
                                            0.0000  0.0000  0.0000
     6. (0.00000) RY*( 1) F   1           s(100.00%)
     7. (0.00000) RY*( 2) F   1           s(100.00%)
     8. (0.00000) RY*( 3) F   1           s(  0.00%)p 1.00(100.00%)
     9. (0.00000) RY*( 4) F   1           s(  0.00%)p 1.00(100.00%)
    10. (0.00000) RY*( 5) F   1           s(  0.00%)p 1.00(100.00%)
    11. (0.00000) RY*( 6) F   1           s(  0.00%)p 1.00(100.00%)
    12. (0.00000) RY*( 7) F   1           s(  0.00%)p 1.00(100.00%)
    13. (0.00000) RY*( 8) F   1           s(  0.00%)p 1.00(100.00%)
    14. (0.00000) RY*( 9) F   1           s(  0.00%)p 0.00(  0.00%)d 1.00(100.00%)
    15. (0.00000) RY*(10) F   1           s(  0.00%)p 0.00(  0.00%)d 1.00(100.00%)
    16. (0.00000) RY*(11) F   1           s(  0.00%)p 0.00(  0.00%)d 1.00(100.00%)
    17. (0.00000) RY*(12) F   1           s(  0.00%)p 0.00(  0.00%)d 1.00(100.00%)
    18. (0.00000) RY*(13) F   1           s(  0.00%)p 0.00(  0.00%)d 1.00(100.00%)
    19. (0.00000) RY*(14) F   1           s(  0.00%)p 0.00(  0.00%)d 1.00(100.00%)
    20. (0.00000) RY*(15) F   1           s(  0.00%)p 0.00(  0.00%)d 1.00(100.00%)
    21. (0.00000) RY*(16) F   1           s(  0.00%)p 0.00(  0.00%)d 1.00(100.00%)
    22. (0.00000) RY*(17) F   1           s(  0.00%)p 0.00(  0.00%)d 1.00(100.00%)
    23. (0.00000) RY*(18) F   1           s(  0.00%)p 0.00(  0.00%)d 1.00(100.00%)


 NHO Directionality and "Bond Bending" (deviations from line of nuclear centers)

         [Thresholds for printing:  angular deviation  >  1.0 degree]
                                    hybrid p-character > 25.0%
                                    orbital occupancy  >  0.10e

                                Line of Centers        Hybrid 1              Hybrid 2
                                ---------------  -------------------   ------------------
                NBO               Theta   Phi    Theta   Phi    Dev    Theta   Phi    Dev
 ========================================================================================
     3. LP (   2) F   1             --     --     90.0    0.0   --       --     --    --
     4. LP (   3) F   1             --     --     90.0   90.0   --       --     --    --
     5. LP (   4) F   1             --     --      0.0    0.0   --       --     --    --


 Second Order Perturbation Theory Analysis of Fock Matrix in NBO Basis

     Threshold for printing:   0.25 kcal/mol
                                                                              E(2)  E(j)-E(i) F(i,j)
         Donor NBO (i)                     Acceptor NBO (j)                 kcal/mol   a.u.    a.u. 
 ===================================================================================================

 within unit  1
       None above threshold


 Natural Bond Orbitals (Summary):

                                                            Principal Delocalizations
           NBO                        Occupancy    Energy   (geminal,vicinal,remote)
 ====================================================================================
 Molecular unit  1  (F)
     1. CR (   1) F   1                  1.00000   -23.30893   
     2. LP (   1) F   1                  1.00000    -1.67940   
     3. LP (   2) F   1                  1.00000     0.00295   
     4. LP (   3) F   1                  1.00000     0.00295   
     5. LP (   4) F   1                  1.00000     0.00295   
     6. RY*(   1) F   1                  0.00000     1.73639   
     7. RY*(   2) F   1                  0.00000     0.99143   
     8. RY*(   3) F   1                  0.00000     0.55334   
     9. RY*(   4) F   1                  0.00000     1.56170   
    10. RY*(   5) F   1                  0.00000     0.55334   
    11. RY*(   6) F   1                  0.00000     1.56170   
    12. RY*(   7) F   1                  0.00000     0.55334   
    13. RY*(   8) F   1                  0.00000     1.56170   
    14. RY*(   9) F   1                  0.00000     2.39785   
    15. RY*(  10) F   1                  0.00000     3.90913   
    16. RY*(  11) F   1                  0.00000     2.39785   
    17. RY*(  12) F   1                  0.00000     3.90913   
    18. RY*(  13) F   1                  0.00000     2.39785   
    19. RY*(  14) F   1                  0.00000     3.90913   
    20. RY*(  15) F   1                  0.00000     2.39785   
    21. RY*(  16) F   1                  0.00000     3.90913   
    22. RY*(  17) F   1                  0.00000     2.39785   
    23. RY*(  18) F   1                  0.00000     3.90913   
       -------------------------------
              Total Lewis    5.00000  (100.0000%)
        Valence non-Lewis    0.00000  (  0.0000%)
        Rydberg non-Lewis   -0.00000  ( -0.0000%)
       -------------------------------
            Total unit  1    5.00000  (100.0000%)
           Charge unit  1   -0.50000
 Leave Link  607 at Sat Jan  1 18:25:21 2005, MaxMem=   524288000 cpu:               1.9 elap:               0.3
 (Enter /home/ubuntu/g16/l701.exe)
 ... and contract with generalized density number  0.
 Compute integral second derivatives.
 Leave Link  701 at Sat Jan  1 18:25:21 2005, MaxMem=   524288000 cpu:               1.3 elap:               0.2
 (Enter /home/ubuntu/g16/l702.exe)
 L702 exits ... SP integral derivatives will be done elsewhere.
 Leave Link  702 at Sat Jan  1 18:25:21 2005, MaxMem=   524288000 cpu:               0.2 elap:               0.0
 (Enter /home/ubuntu/g16/l703.exe)
 Integral derivatives from FoFJK, PRISM(SPDF).
 Compute integral second derivatives, UseDBF=F ICtDFT=           0.
 Calling FoFJK, ICntrl=    100127 FMM=F ISym2X=1 I1Cent= 0 IOpClX= 1 NMat=1 NMatS=1 NMatT=0.
 FoFJK:  IHMeth= 1 ICntrl=  100127 DoSepK=F KAlg= 0 I1Cent=           0 FoldK=F
 IRaf=         0 NMat=       1 IRICut=       1 DoRegI=T DoRafI=F ISym2E= 1 IDoP0=0 IntGTp=1.
 FoFCou: FMM=F IPFlag=           0 FMFlag=      100000 FMFlg1=         800
         NFxFlg=           0 DoJE=F BraDBF=F KetDBF=F FulRan=T
         wScrn=  0.000000 ICntrl=    100127 IOpCl=  1 I1Cent=           0 NGrid=           0
         NMat0=    1 NMatS0=      1 NMatT0=    0 NMatD0=    1 NMtDS0=    0 NMtDT0=    0
 Petite list used in FoFCou.
 Leave Link  703 at Sat Jan  1 18:25:22 2005, MaxMem=   524288000 cpu:               1.9 elap:               0.3
 (Enter /home/ubuntu/g16/l716.exe)
 Dipole        = 0.00000000D+00 0.00000000D+00 0.00000000D+00
 Polarizability= 6.79701637D+00 0.00000000D+00 6.79701637D+00
                 0.00000000D+00 0.00000000D+00 6.79701637D+00
 Full mass-weighted force constant matrix:
 Low frequencies ---    0.0022    0.0022    0.0022
 Diagonal vibrational polarizability:
        0.0000000       0.0000000       0.0000000
 Harmonic frequencies (cm**-1), IR intensities (KM/Mole), Raman scattering
 activities (A**4/AMU), depolarization ratios for plane and unpolarized
 incident light, reduced masses (AMU), force constants (mDyne/A),
 and normal coordinates:

 -------------------
 - Thermochemistry -
 -------------------
 Temperature   298.150 Kelvin.  Pressure   1.00000 Atm.
 Atom     1 has atomic number  9 and mass  18.99840
 Molecular mass:    18.99840 amu.
 Zero-point vibrational energy          0.0 (Joules/Mol)
                                    0.00000 (Kcal/Mol)
 Vibrational temperatures: 
          (Kelvin)
 
 Zero-point correction=                           0.000000 (Hartree/Particle)
 Thermal correction to Energy=                    0.001416
 Thermal correction to Enthalpy=                  0.002360
 Thermal correction to Gibbs Free Energy=        -0.014159
 Sum of electronic and zero-point Energies=            -99.870373
 Sum of electronic and thermal Energies=               -99.868956
 Sum of electronic and thermal Enthalpies=             -99.868012
 Sum of electronic and thermal Free Energies=          -99.884531
 
                     E (Thermal)             CV                S
                      KCal/Mol        Cal/Mol-Kelvin    Cal/Mol-Kelvin
 Total                    0.889              2.981             34.767
 Electronic               0.000              0.000              0.000
 Translational            0.889              2.981             34.767
 Rotational               0.000              0.000              0.000
 Vibrational              0.000              0.000              0.000
                       Q            Log10(Q)             Ln(Q)
 Total Bot       0.325484D+07          6.512530         14.995653
 Total V=0       0.325484D+07          6.512530         14.995653
 Vib (Bot)       0.100000D+01          0.000000          0.000000
 Vib (V=0)       0.100000D+01          0.000000          0.000000
 Electronic      0.100000D+01          0.000000          0.000000
 Translational   0.325484D+07          6.512530         14.995653
 Rotational      0.100000D+01          0.000000          0.000000
 ***** Axes restored to original set *****
 -------------------------------------------------------------------
 Center     Atomic                   Forces (Hartrees/Bohr)
 Number     Number              X              Y              Z
 -------------------------------------------------------------------
      1        9          -0.000000000   -0.000000000   -0.000000000
 -------------------------------------------------------------------
 Cartesian Forces:  Max     0.000000000 RMS     0.000000000
 Force constants in Cartesian coordinates: 
                1             2             3 
      1  0.000000D+00
      2  0.000000D+00  0.000000D+00
      3  0.000000D+00  0.000000D+00  0.000000D+00
 Leave Link  716 at Sat Jan  1 18:25:22 2005, MaxMem=   524288000 cpu:               0.3 elap:               0.1
 (Enter /home/ubuntu/g16/l103.exe)

 GradGradGradGradGradGradGradGradGradGradGradGradGradGradGradGradGradGrad
 Berny optimization.
 Search for a local minimum.
 Step number   1 out of a maximum of    2
 All quantities printed in internal units (Hartrees-Bohrs-Radians)
 Second derivative matrix not updated -- analytic derivatives used.
 The second derivative matrix:
                          X1        Y1        Z1
           X1           0.00000
           Y1           0.00000   0.00000
           Z1           0.00000  -0.00000   0.00000
 ITU=  0
     Eigenvalues --- 
 Angle between quadratic step and forces=  90.00 degrees.
 ClnCor:  largest displacement from symmetrization is 0.00D+00 for atom     0.
 Linear search not attempted -- first point.
 ClnCor:  largest displacement from symmetrization is 0.00D+00 for atom     0.
 B after Tr=     0.000000    0.000000    0.000000
         Rot=    1.000000    0.000000    0.000000    0.000000 Ang=   0.00 deg.
 Variable       Old X    -DE/DX   Delta X   Delta X   Delta X     New X
                                 (Linear)    (Quad)   (Total)
    X1       -1.41268  -0.00000   0.00000   0.00000   0.00000  -1.41268
    Y1       -0.99721  -0.00000   0.00000   0.00000   0.00000  -0.99721
    Z1        0.00756  -0.00000   0.00000   0.00000   0.00000   0.00756
         Item               Value     Threshold  Converged?
 Maximum Force            0.000000     0.000450     YES
 RMS     Force            0.000000     0.000300     YES
 Maximum Displacement     0.000000     0.001800     YES
 RMS     Displacement     0.000000     0.001200     YES
 Predicted change in Energy=-0.000000D+00
 Optimization completed.
    -- Stationary point found.
 GradGradGradGradGradGradGradGradGradGradGradGradGradGradGradGradGradGrad

 Leave Link  103 at Sat Jan  1 18:25:22 2005, MaxMem=   524288000 cpu:               0.2 elap:               0.0
 (Enter /home/ubuntu/g16/l9999.exe)
 Dipole is zero, so no output in dipole orientation.

 ----------------------------------------------------------------------

 Electric dipole moment (input orientation):
 (Debye = 10**-18 statcoulomb cm , SI units = C m)
                  (au)            (Debye)         (10**-30 SI)
   Tot        0.000000D+00      0.000000D+00      0.000000D+00
   x          0.000000D+00      0.000000D+00      0.000000D+00
   y          0.000000D+00      0.000000D+00      0.000000D+00
   z          0.000000D+00      0.000000D+00      0.000000D+00

 Dipole polarizability, Alpha (input orientation).
 (esu units = cm**3 , SI units = C**2 m**2 J**-1)
 Alpha(0;0):
               (au)            (10**-24 esu)      (10**-40 SI)
   iso        0.679702D+01      0.100721D+01      0.112068D+01
   aniso      0.000000D+00      0.000000D+00      0.000000D+00
   xx         0.679702D+01      0.100721D+01      0.112068D+01
   yx         0.000000D+00      0.000000D+00      0.000000D+00
   yy         0.679702D+01      0.100721D+01      0.112068D+01
   zx         0.000000D+00      0.000000D+00      0.000000D+00
   zy         0.000000D+00      0.000000D+00      0.000000D+00
   zz         0.679702D+01      0.100721D+01      0.112068D+01

 ----------------------------------------------------------------------
 1\1\GINC-LC06-1-8\Freq\UB3LYP\Aug-CC-pVDZ\F1(1-)\UBUNTU\01-Jan-2005\0\
 \#P Geom=AllCheck Guess=TCheck SCRF=Check GenChk UB3LYP/Aug-CC-pVDZ Fr
 eq\\F-_UB3LYP-aug-cc-pVDZ\\-1,1\F,-0.74756,-0.5277,0.004\\Version=ES64
 L-G16RevA.03\State=1-A1G\HF=-99.8703727\S2=0.\S2-1=0.\S2A=0.\RMSD=0.00
 0e+00\RMSF=0.000e+00\Thermal=0.0014163\Dipole=0.,0.,0.\DipoleDeriv=-1.
 ,0.,0.,0.,-1.,0.,0.,0.,-1.\Polar=6.7970164,0.,6.7970164,0.,0.,6.797016
 4\Quadrupole=0.,0.,0.,0.,0.,0.\PG=OH [O(F1)]\NImag=0\\0.,0.,0.,0.,0.,0
 .\\0.,0.,0.\\\@


 THE SCIENTIFIC THEORIST IS NOT TO BE ENVIED. FOR NATURE, OR MORE
 PRECISELY EXPERIMENT, IS AN INEXORABLE AND NOT VERY FRIENDLY JUDGE OF HIS
 WORK.  IT NEVER SAYS "YES" TO A THEORY. IN THE MOST FAVORABLE CASES
 IT SAYS "MAYBE", AND IN THE GREAT MAJORITY OF CASES SIMPLY "NO"...
 PROBABLY EVERY THEORY WILL SOME DAY EXPERIENCE ITS "NO" - MOST
 THEORIES, SOON AFTER CONCEPTION.  -- A.EINSTEIN, NOV 11, 1922.
 Job cpu time:       0 days  0 hours  0 minutes 16.1 seconds.
 Elapsed time:       0 days  0 hours  0 minutes  2.6 seconds.
 File lengths (MBytes):  RWF=      6 Int=      0 D2E=      0 Chk=      1 Scr=      1
 Normal termination of Gaussian 16 at Sat Jan  1 18:25:22 2005.
