 Entering Gaussian System, Link 0=/home/ubuntu/g16/g16
 Input=H2SO4_UB3LYP-aug-cc-pVDZ-Opt.gjf
 Output=H2SO4_UB3LYP-aug-cc-pVDZ-Opt.log
 Initial command:
 /home/ubuntu/g16/l1.exe "/home/ubuntu/g16/Gau-3184.inp" -scrdir="/home/ubuntu/g16/"
 Entering Link 1 = /home/ubuntu/g16/l1.exe PID=      3186.
  
 Copyright (c) 1988,1990,1992,1993,1995,1998,2003,2009,2016,
            Gaussian, Inc.  All Rights Reserved.
  
 This is part of the Gaussian(R) 16 program.  It is based on
 the Gaussian(R) 09 system (copyright 2009, Gaussian, Inc.),
 the Gaussian(R) 03 system (copyright 2003, Gaussian, Inc.),
 the Gaussian(R) 98 system (copyright 1998, Gaussian, Inc.),
 the Gaussian(R) 94 system (copyright 1995, Gaussian, Inc.),
 the Gaussian 92(TM) system (copyright 1992, Gaussian, Inc.),
 the Gaussian 90(TM) system (copyright 1990, Gaussian, Inc.),
 the Gaussian 88(TM) system (copyright 1988, Gaussian, Inc.),
 the Gaussian 86(TM) system (copyright 1986, Carnegie Mellon
 University), and the Gaussian 82(TM) system (copyright 1983,
 Carnegie Mellon University). Gaussian is a federally registered
 trademark of Gaussian, Inc.
  
 This software contains proprietary and confidential information,
 including trade secrets, belonging to Gaussian, Inc.
  
 This software is provided under written license and may be
 used, copied, transmitted, or stored only in accord with that
 written license.
  
 The following legend is applicable only to US Government
 contracts under FAR:
  
                    RESTRICTED RIGHTS LEGEND
  
 Use, reproduction and disclosure by the US Government is
 subject to restrictions as set forth in subparagraphs (a)
 and (c) of the Commercial Computer Software - Restricted
 Rights clause in FAR 52.227-19.
  
 Gaussian, Inc.
 340 Quinnipiac St., Bldg. 40, Wallingford CT 06492
  
  
 ---------------------------------------------------------------
 Warning -- This program may not be used in any manner that
 competes with the business of Gaussian, Inc. or will provide
 assistance to any competitor of Gaussian, Inc.  The licensee
 of this program is prohibited from giving any competitor of
 Gaussian, Inc. access to this program.  By using this program,
 the user acknowledges that Gaussian, Inc. is engaged in the
 business of creating and licensing software in the field of
 computational chemistry and represents and warrants to the
 licensee that it is not a competitor of Gaussian, Inc. and that
 it will not use this program in any manner prohibited above.
 ---------------------------------------------------------------
  

 Cite this work as:
 Gaussian 16, Revision A.03,
 M. J. Frisch, G. W. Trucks, H. B. Schlegel, G. E. Scuseria, 
 M. A. Robb, J. R. Cheeseman, G. Scalmani, V. Barone, 
 G. A. Petersson, H. Nakatsuji, X. Li, M. Caricato, A. V. Marenich, 
 J. Bloino, B. G. Janesko, R. Gomperts, B. Mennucci, H. P. Hratchian, 
 J. V. Ortiz, A. F. Izmaylov, J. L. Sonnenberg, D. Williams-Young, 
 F. Ding, F. Lipparini, F. Egidi, J. Goings, B. Peng, A. Petrone, 
 T. Henderson, D. Ranasinghe, V. G. Zakrzewski, J. Gao, N. Rega, 
 G. Zheng, W. Liang, M. Hada, M. Ehara, K. Toyota, R. Fukuda, 
 J. Hasegawa, M. Ishida, T. Nakajima, Y. Honda, O. Kitao, H. Nakai, 
 T. Vreven, K. Throssell, J. A. Montgomery, Jr., J. E. Peralta, 
 F. Ogliaro, M. J. Bearpark, J. J. Heyd, E. N. Brothers, K. N. Kudin, 
 V. N. Staroverov, T. A. Keith, R. Kobayashi, J. Normand, 
 K. Raghavachari, A. P. Rendell, J. C. Burant, S. S. Iyengar, 
 J. Tomasi, M. Cossi, J. M. Millam, M. Klene, C. Adamo, R. Cammi, 
 J. W. Ochterski, R. L. Martin, K. Morokuma, O. Farkas, 
 J. B. Foresman, and D. J. Fox, Gaussian, Inc., Wallingford CT, 2016.
 
 ******************************************
 Gaussian 16:  ES64L-G16RevA.03 25-Dec-2016
                 1-Aug-2020 
 ******************************************
 %chk=H2SO4_UB3LYP-aug-cc-pVDZ-Opt.chk
 %mem=500MW
 %nproc=7
 Will use up to    7 processors via shared memory.
 ----------------------------------------------------------------------
 #p opt=(maxcycles=777) freq ub3lyp/aug-cc-pVDZ pop=(Bonding,AllOrbital
 s,mk,no,nboread)
 ----------------------------------------------------------------------
 1/6=777,18=20,19=15,26=3,38=1/1,3;
 2/9=110,12=2,17=6,18=5,40=1/2;
 3/5=16,7=10,11=2,25=1,30=1,71=1,74=-5,116=2/1,2,3;
 4//1;
 5/5=2,38=5/2;
 6/7=2,8=2,9=2,10=2,15=8,20=1,22=-1,27=20,28=1,31=1,40=2,96=-1/1,2,7;
 7//1,2,3,16;
 1/6=777,18=20,19=15,26=3/3(2);
 2/9=110/2;
 99//99;
 2/9=110/2;
 3/5=16,7=10,11=2,25=1,30=1,71=1,74=-5,116=2/1,2,3;
 4/5=5,16=3,69=1/1;
 5/5=2,38=5/2;
 7//1,2,3,16;
 1/6=777,18=20,19=15,26=3/3(-5);
 2/9=110/2;
 6/7=2,8=2,9=2,10=2,15=8,19=2,20=1,22=-1,27=20,28=1,31=1,40=2,96=-1/1,2,7;
 99/9=1/99;
 Leave Link    1 at Sat Aug  1 13:57:44 2020, MaxMem=   524288000 cpu:               0.3 elap:               0.1
 (Enter /home/ubuntu/g16/l101.exe)
 ------------------------
 H2SO4_UB3LYP-aug-cc-pVDZ
 ------------------------
 Symbolic Z-matrix:
 Charge =  0 Multiplicity = 1
 S                     5.00864   0.68466   0.18163 
 O                     3.93874   1.53846   0.70626 
 O                     5.00796  -0.78099   0.21565 
 O                     5.27557   1.08581  -1.39345 
 H                     4.98605   2.00696  -1.51202 
 O                     6.39055   1.22567   0.89643 
 H                     7.058     0.52353   0.8073 
 
 ITRead=  0  0  0  0  0  0  0
 MicOpt= -1 -1 -1 -1 -1 -1 -1
 NAtoms=      7 NQM=        7 NQMF=       0 NMMI=      0 NMMIF=      0
                NMic=       0 NMicF=      0.
                    Isotopes and Nuclear Properties:
 (Nuclear quadrupole moments (NQMom) in fm**2, nuclear magnetic moments (NMagM)
  in nuclear magnetons)

  Atom         1           2           3           4           5           6           7
 IAtWgt=          32          16          16          16           1          16           1
 AtmWgt=  31.9720718  15.9949146  15.9949146  15.9949146   1.0078250  15.9949146   1.0078250
 NucSpn=           0           0           0           0           1           0           1
 AtZEff=  -0.0000000  -0.0000000  -0.0000000  -0.0000000  -0.0000000  -0.0000000  -0.0000000
 NQMom=    0.0000000   0.0000000   0.0000000   0.0000000   0.0000000   0.0000000   0.0000000
 NMagM=    0.0000000   0.0000000   0.0000000   0.0000000   2.7928460   0.0000000   2.7928460
 AtZNuc=  16.0000000   8.0000000   8.0000000   8.0000000   1.0000000   8.0000000   1.0000000
 Leave Link  101 at Sat Aug  1 13:57:44 2020, MaxMem=   524288000 cpu:               0.7 elap:               0.1
 (Enter /home/ubuntu/g16/l103.exe)

 GradGradGradGradGradGradGradGradGradGradGradGradGradGradGradGradGradGrad
 Berny optimization.
 Initialization pass.
                           ----------------------------
                           !    Initial Parameters    !
                           ! (Angstroms and Degrees)  !
 --------------------------                            --------------------------
 ! Name  Definition              Value          Derivative Info.                !
 --------------------------------------------------------------------------------
 ! R1    R(1,2)                  1.4659         estimate D2E/DX2                !
 ! R2    R(1,3)                  1.466          estimate D2E/DX2                !
 ! R3    R(1,4)                  1.6471         estimate D2E/DX2                !
 ! R4    R(1,6)                  1.6472         estimate D2E/DX2                !
 ! R5    R(4,5)                  0.9728         estimate D2E/DX2                !
 ! R6    R(6,7)                  0.9728         estimate D2E/DX2                !
 ! A1    A(2,1,3)              125.0042         estimate D2E/DX2                !
 ! A2    A(2,1,4)              108.5819         estimate D2E/DX2                !
 ! A3    A(2,1,6)              105.4088         estimate D2E/DX2                !
 ! A4    A(3,1,4)              105.4112         estimate D2E/DX2                !
 ! A5    A(3,1,6)              108.5826         estimate D2E/DX2                !
 ! A6    A(4,1,6)              101.4795         estimate D2E/DX2                !
 ! A7    A(1,4,5)              107.3932         estimate D2E/DX2                !
 ! A8    A(1,6,7)              107.384          estimate D2E/DX2                !
 ! D1    D(2,1,4,5)             24.9161         estimate D2E/DX2                !
 ! D2    D(3,1,4,5)            161.006          estimate D2E/DX2                !
 ! D3    D(6,1,4,5)            -85.8351         estimate D2E/DX2                !
 ! D4    D(2,1,6,7)            161.9022         estimate D2E/DX2                !
 ! D5    D(3,1,6,7)             25.8137         estimate D2E/DX2                !
 ! D6    D(4,1,6,7)            -84.9404         estimate D2E/DX2                !
 --------------------------------------------------------------------------------
 Trust Radius=3.00D-01 FncErr=1.00D-07 GrdErr=1.00D-06 EigMax=2.50D+02 EigMin=1.00D-04
 Number of steps in this run=    100 maximum allowed number of steps=    100.
 GradGradGradGradGradGradGradGradGradGradGradGradGradGradGradGradGradGrad

 Leave Link  103 at Sat Aug  1 13:57:44 2020, MaxMem=   524288000 cpu:               0.1 elap:               0.0
 (Enter /home/ubuntu/g16/l202.exe)
                          Input orientation:                          
 ---------------------------------------------------------------------
 Center     Atomic      Atomic             Coordinates (Angstroms)
 Number     Number       Type             X           Y           Z
 ---------------------------------------------------------------------
      1         16           0        5.008640    0.684660    0.181630
      2          8           0        3.938740    1.538460    0.706260
      3          8           0        5.007960   -0.780990    0.215650
      4          8           0        5.275570    1.085810   -1.393450
      5          1           0        4.986050    2.006960   -1.512020
      6          8           0        6.390550    1.225670    0.896430
      7          1           0        7.058000    0.523530    0.807300
 ---------------------------------------------------------------------
                    Distance matrix (angstroms):
                    1          2          3          4          5
     1  S    0.000000
     2  O    1.465912   0.000000
     3  O    1.466045   2.600726   0.000000
     4  O    1.647134   2.529978   2.479064   0.000000
     5  H    2.148822   2.497422   3.279937   0.972830   0.000000
     6  O    1.647212   2.478987   2.530158   2.550743   2.895456
     7  H    2.148791   3.281779   2.500897   2.887303   3.445691
                    6          7
     6  O    0.000000
     7  H    0.972849   0.000000
 Stoichiometry    H2O4S
 Framework group  C1[X(H2O4S)]
 Deg. of freedom    15
 Full point group                 C1      NOp   1
 Largest Abelian subgroup         C1      NOp   1
 Largest concise Abelian subgroup C1      NOp   1
                         Standard orientation:                         
 ---------------------------------------------------------------------
 Center     Atomic      Atomic             Coordinates (Angstroms)
 Number     Number       Type             X           Y           Z
 ---------------------------------------------------------------------
      1         16           0        0.000192    0.000472   -0.168339
      2          8           0        0.653899    1.126872   -0.841234
      3          8           0       -0.650844   -1.122875   -0.849171
      4          8           0        1.075837   -0.683795    0.874646
      5          1           0        1.724613    0.000534    1.113773
      6          8           0       -1.079720    0.679974    0.873473
      7          1           0       -1.721061   -0.009487    1.117931
 ---------------------------------------------------------------------
 Rotational constants (GHZ):           4.7672386           4.7048863           4.5078991
 Leave Link  202 at Sat Aug  1 13:57:44 2020, MaxMem=   524288000 cpu:               0.1 elap:               0.0
 (Enter /home/ubuntu/g16/l301.exe)
 Standard basis: Aug-CC-pVDZ (5D, 7F)
 Ernie: Thresh=  0.10000D-02 Tol=  0.10000D-05 Strict=F.
 Ernie:  18 primitive shells out of 167 were deleted.
 There are   147 symmetry adapted cartesian basis functions of A   symmetry.
 There are   137 symmetry adapted basis functions of A   symmetry.
   137 basis functions,   275 primitive gaussians,   147 cartesian basis functions
    25 alpha electrons       25 beta electrons
       nuclear repulsion energy       280.6812686826 Hartrees.
 IExCor=  402 DFT=T Ex+Corr=B3LYP ExCW=0 ScaHFX=  0.200000
 ScaDFX=  0.800000  0.720000  1.000000  0.810000 ScalE2=  1.000000  1.000000
 IRadAn=      5 IRanWt=     -1 IRanGd=            0 ICorTp=0 IEmpDi=  4
 NAtoms=    7 NActive=    7 NUniq=    7 SFac= 1.00D+00 NAtFMM=   60 NAOKFM=F Big=F
 Integral buffers will be    131072 words long.
 Raffenetti 2 integral format.
 Two-electron integral symmetry is turned on.
 Leave Link  301 at Sat Aug  1 13:57:44 2020, MaxMem=   524288000 cpu:               0.2 elap:               0.0
 (Enter /home/ubuntu/g16/l302.exe)
 NPDir=0 NMtPBC=     1 NCelOv=     1 NCel=       1 NClECP=     1 NCelD=      1
         NCelK=      1 NCelE2=     1 NClLst=     1 CellRange=     0.0.
 One-electron integrals computed using PRISM.
 One-electron integral symmetry used in STVInt
 NBasis=   137 RedAO= T EigKep=  4.36D-04  NBF=   137
 NBsUse=   137 1.00D-06 EigRej= -1.00D+00 NBFU=   137
 Precomputing XC quadrature grid using
 IXCGrd= 4 IRadAn=           5 IRanWt=          -1 IRanGd=           0 AccXCQ= 0.00D+00.
 Generated NRdTot=       0 NPtTot=           0 NUsed=           0 NTot=          32
 NSgBfM=   147   147   147   147   147 MxSgAt=     7 MxSgA2=     7.
 Leave Link  302 at Sat Aug  1 13:57:44 2020, MaxMem=   524288000 cpu:               1.2 elap:               0.2
 (Enter /home/ubuntu/g16/l303.exe)
 DipDrv:  MaxL=1.
 Leave Link  303 at Sat Aug  1 13:57:44 2020, MaxMem=   524288000 cpu:               0.3 elap:               0.1
 (Enter /home/ubuntu/g16/l401.exe)
 ExpMin= 2.97D-02 ExpMax= 1.11D+05 ExpMxC= 1.07D+03 IAcc=3 IRadAn=         5 AccDes= 0.00D+00
 Harris functional with IExCor=  402 and IRadAn=       5 diagonalized for initial guess.
 HarFok:  IExCor=  402 AccDes= 0.00D+00 IRadAn=         5 IDoV= 1 UseB2=F ITyADJ=14
 ICtDFT=  3500011 ScaDFX=  1.000000  1.000000  1.000000  1.000000
 FoFCou: FMM=F IPFlag=           0 FMFlag=      100000 FMFlg1=           0
         NFxFlg=           0 DoJE=T BraDBF=F KetDBF=T FulRan=T
         wScrn=  0.000000 ICntrl=       500 IOpCl=  0 I1Cent=   200000004 NGrid=           0
         NMat0=    1 NMatS0=      1 NMatT0=    0 NMatD0=    1 NMtDS0=    0 NMtDT0=    0
 Petite list used in FoFCou.
 Harris En= -700.357722569864    
 JPrj=0 DoOrth=F DoCkMO=F.
 Initial guess <Sx>= 0.0000 <Sy>= 0.0000 <Sz>= 0.0000 <S**2>= 0.0000 S= 0.0000
 Leave Link  401 at Sat Aug  1 13:57:45 2020, MaxMem=   524288000 cpu:               4.9 elap:               0.7
 (Enter /home/ubuntu/g16/l502.exe)
 Keep R1 and R2 ints in memory in canonical form, NReq=96167274.
 FoFCou: FMM=F IPFlag=           0 FMFlag=           0 FMFlg1=           0
         NFxFlg=           0 DoJE=F BraDBF=F KetDBF=F FulRan=T
         wScrn=  0.000000 ICntrl=       600 IOpCl=  0 I1Cent=           0 NGrid=           0
         NMat0=    1 NMatS0=   9453 NMatT0=    0 NMatD0=    1 NMtDS0=    0 NMtDT0=    0
 Symmetry not used in FoFCou.
 Two-electron integral symmetry not used.
 UHF open shell SCF:
 Using DIIS extrapolation, IDIIS=  1040.
 NGot=   524288000 LenX=   434873626 LenY=   434851576
 Requested convergence on RMS density matrix=1.00D-08 within 128 cycles.
 Requested convergence on MAX density matrix=1.00D-06.
 Requested convergence on             energy=1.00D-06.
 No special actions if energy rises.

 Cycle   1  Pass 1  IDiag  1:
 E= -699.953838611029    
 DIIS: error= 4.64D-02 at cycle   1 NSaved=   1.
 NSaved= 1 IEnMin= 1 EnMin= -699.953838611029     IErMin= 1 ErrMin= 4.64D-02
 ErrMax= 4.64D-02  0.00D+00 EMaxC= 1.00D-01 BMatC= 1.76D+00 BMatP= 1.76D+00
 IDIUse=3 WtCom= 5.36D-01 WtEn= 4.64D-01
 Coeff-Com:  0.100D+01
 Coeff-En:   0.100D+01
 Coeff:      0.100D+01
 Gap=     0.218 Goal=   None    Shift=    0.000
 Gap=     0.218 Goal=   None    Shift=    0.000
 GapD=    0.218 DampG=1.000 DampE=0.500 DampFc=0.5000 IDamp=-1.
 Damping current iteration by 5.00D-01
 RMSDP=1.15D-02 MaxDP=3.09D-01              OVMax= 2.67D-01

 Cycle   2  Pass 1  IDiag  1:
 E= -699.983200137707     Delta-E=       -0.029361526679 Rises=F Damp=T
 DIIS: error= 1.81D-02 at cycle   2 NSaved=   2.
 NSaved= 2 IEnMin= 2 EnMin= -699.983200137707     IErMin= 2 ErrMin= 1.81D-02
 ErrMax= 1.81D-02  0.00D+00 EMaxC= 1.00D-01 BMatC= 3.26D-01 BMatP= 1.76D+00
 IDIUse=3 WtCom= 8.19D-01 WtEn= 1.81D-01
 Coeff-Com:  0.286D+00 0.714D+00
 Coeff-En:   0.465D+00 0.535D+00
 Coeff:      0.319D+00 0.681D+00
 Gap=     0.303 Goal=   None    Shift=    0.000
 Gap=     0.303 Goal=   None    Shift=    0.000
 RMSDP=2.98D-03 MaxDP=8.88D-02 DE=-2.94D-02 OVMax= 1.89D-01

 Cycle   3  Pass 1  IDiag  1:
 E= -700.261667255223     Delta-E=       -0.278467117515 Rises=F Damp=F
 DIIS: error= 8.99D-03 at cycle   3 NSaved=   3.
 NSaved= 3 IEnMin= 3 EnMin= -700.261667255223     IErMin= 3 ErrMin= 8.99D-03
 ErrMax= 8.99D-03  0.00D+00 EMaxC= 1.00D-01 BMatC= 9.90D-02 BMatP= 3.26D-01
 IDIUse=3 WtCom= 9.10D-01 WtEn= 8.99D-02
 Coeff-Com:  0.174D+00 0.427D+00 0.400D+00
 Coeff-En:   0.000D+00 0.000D+00 0.100D+01
 Coeff:      0.158D+00 0.388D+00 0.454D+00
 Gap=     0.319 Goal=   None    Shift=    0.000
 Gap=     0.319 Goal=   None    Shift=    0.000
 RMSDP=1.14D-03 MaxDP=2.90D-02 DE=-2.78D-01 OVMax= 4.12D-02

 Cycle   4  Pass 1  IDiag  1:
 E= -700.278263536018     Delta-E=       -0.016596280795 Rises=F Damp=F
 DIIS: error= 3.10D-03 at cycle   4 NSaved=   4.
 NSaved= 4 IEnMin= 4 EnMin= -700.278263536018     IErMin= 4 ErrMin= 3.10D-03
 ErrMax= 3.10D-03  0.00D+00 EMaxC= 1.00D-01 BMatC= 1.24D-02 BMatP= 9.90D-02
 IDIUse=3 WtCom= 9.69D-01 WtEn= 3.10D-02
 Coeff-Com:  0.496D-03 0.231D-01 0.259D+00 0.718D+00
 Coeff-En:   0.000D+00 0.000D+00 0.130D+00 0.870D+00
 Coeff:      0.480D-03 0.224D-01 0.255D+00 0.722D+00
 Gap=     0.300 Goal=   None    Shift=    0.000
 Gap=     0.300 Goal=   None    Shift=    0.000
 RMSDP=2.82D-04 MaxDP=7.82D-03 DE=-1.66D-02 OVMax= 1.02D-02

 Cycle   5  Pass 1  IDiag  1:
 E= -700.280527854378     Delta-E=       -0.002264318360 Rises=F Damp=F
 DIIS: error= 3.67D-04 at cycle   5 NSaved=   5.
 NSaved= 5 IEnMin= 5 EnMin= -700.280527854378     IErMin= 5 ErrMin= 3.67D-04
 ErrMax= 3.67D-04  0.00D+00 EMaxC= 1.00D-01 BMatC= 1.27D-04 BMatP= 1.24D-02
 IDIUse=3 WtCom= 9.96D-01 WtEn= 3.67D-03
 Coeff-Com: -0.187D-02 0.351D-02 0.916D-01 0.280D+00 0.627D+00
 Coeff-En:   0.000D+00 0.000D+00 0.000D+00 0.000D+00 0.100D+01
 Coeff:     -0.186D-02 0.349D-02 0.913D-01 0.279D+00 0.628D+00
 Gap=     0.299 Goal=   None    Shift=    0.000
 Gap=     0.299 Goal=   None    Shift=    0.000
 RMSDP=4.39D-05 MaxDP=1.13D-03 DE=-2.26D-03 OVMax= 1.21D-03

 Cycle   6  Pass 1  IDiag  1:
 E= -700.280555422608     Delta-E=       -0.000027568230 Rises=F Damp=F
 DIIS: error= 7.96D-05 at cycle   6 NSaved=   6.
 NSaved= 6 IEnMin= 6 EnMin= -700.280555422608     IErMin= 6 ErrMin= 7.96D-05
 ErrMax= 7.96D-05  0.00D+00 EMaxC= 1.00D-01 BMatC= 7.24D-06 BMatP= 1.27D-04
 IDIUse=1 WtCom= 1.00D+00 WtEn= 0.00D+00
 Coeff-Com: -0.700D-03-0.127D-02 0.749D-02 0.242D-01 0.209D+00 0.761D+00
 Coeff:     -0.700D-03-0.127D-02 0.749D-02 0.242D-01 0.209D+00 0.761D+00
 Gap=     0.299 Goal=   None    Shift=    0.000
 Gap=     0.299 Goal=   None    Shift=    0.000
 RMSDP=8.76D-06 MaxDP=2.18D-04 DE=-2.76D-05 OVMax= 2.91D-04

 Cycle   7  Pass 1  IDiag  1:
 E= -700.280556987854     Delta-E=       -0.000001565246 Rises=F Damp=F
 DIIS: error= 1.20D-05 at cycle   7 NSaved=   7.
 NSaved= 7 IEnMin= 7 EnMin= -700.280556987854     IErMin= 7 ErrMin= 1.20D-05
 ErrMax= 1.20D-05  0.00D+00 EMaxC= 1.00D-01 BMatC= 1.79D-07 BMatP= 7.24D-06
 IDIUse=1 WtCom= 1.00D+00 WtEn= 0.00D+00
 Coeff-Com: -0.199D-03-0.414D-03 0.816D-03 0.321D-02 0.631D-01 0.265D+00
 Coeff-Com:  0.668D+00
 Coeff:     -0.199D-03-0.414D-03 0.816D-03 0.321D-02 0.631D-01 0.265D+00
 Coeff:      0.668D+00
 Gap=     0.299 Goal=   None    Shift=    0.000
 Gap=     0.299 Goal=   None    Shift=    0.000
 RMSDP=2.22D-06 MaxDP=5.82D-05 DE=-1.57D-06 OVMax= 9.63D-05

 Cycle   8  Pass 1  IDiag  1:
 E= -700.280556986140     Delta-E=        0.000000001715 Rises=F Damp=F
 DIIS: error= 1.47D-05 at cycle   8 NSaved=   8.
 NSaved= 8 IEnMin= 7 EnMin= -700.280556987854     IErMin= 7 ErrMin= 1.20D-05
 ErrMax= 1.47D-05  0.00D+00 EMaxC= 1.00D-01 BMatC= 1.89D-07 BMatP= 1.79D-07
 IDIUse=1 WtCom= 1.00D+00 WtEn= 0.00D+00
 Coeff-Com: -0.656D-04-0.132D-03-0.363D-03-0.609D-03 0.211D-01 0.102D+00
 Coeff-Com:  0.498D+00 0.381D+00
 Coeff:     -0.656D-04-0.132D-03-0.363D-03-0.609D-03 0.211D-01 0.102D+00
 Coeff:      0.498D+00 0.381D+00
 Gap=     0.299 Goal=   None    Shift=    0.000
 Gap=     0.299 Goal=   None    Shift=    0.000
 RMSDP=1.23D-06 MaxDP=3.25D-05 DE= 1.71D-09 OVMax= 5.66D-05

 Cycle   9  Pass 1  IDiag  1:
 E= -700.280557022493     Delta-E=       -0.000000036353 Rises=F Damp=F
 DIIS: error= 1.22D-06 at cycle   9 NSaved=   9.
 NSaved= 9 IEnMin= 9 EnMin= -700.280557022493     IErMin= 9 ErrMin= 1.22D-06
 ErrMax= 1.22D-06  0.00D+00 EMaxC= 1.00D-01 BMatC= 1.93D-09 BMatP= 1.79D-07
 IDIUse=1 WtCom= 1.00D+00 WtEn= 0.00D+00
 Coeff-Com: -0.538D-05 0.224D-04-0.268D-03-0.589D-03-0.182D-02-0.463D-02
 Coeff-Com:  0.458D-01 0.860D-01 0.875D+00
 Coeff:     -0.538D-05 0.224D-04-0.268D-03-0.589D-03-0.182D-02-0.463D-02
 Coeff:      0.458D-01 0.860D-01 0.875D+00
 Gap=     0.299 Goal=   None    Shift=    0.000
 Gap=     0.299 Goal=   None    Shift=    0.000
 RMSDP=1.82D-07 MaxDP=3.65D-06 DE=-3.64D-08 OVMax= 5.04D-06

 Cycle  10  Pass 1  IDiag  1:
 E= -700.280557022888     Delta-E=       -0.000000000395 Rises=F Damp=F
 DIIS: error= 2.07D-07 at cycle  10 NSaved=  10.
 NSaved=10 IEnMin=10 EnMin= -700.280557022888     IErMin=10 ErrMin= 2.07D-07
 ErrMax= 2.07D-07  0.00D+00 EMaxC= 1.00D-01 BMatC= 5.64D-11 BMatP= 1.93D-09
 IDIUse=1 WtCom= 1.00D+00 WtEn= 0.00D+00
 Coeff-Com: -0.213D-05 0.114D-04-0.948D-04-0.211D-03-0.940D-03-0.295D-02
 Coeff-Com:  0.957D-02 0.262D-01 0.328D+00 0.641D+00
 Coeff:     -0.213D-05 0.114D-04-0.948D-04-0.211D-03-0.940D-03-0.295D-02
 Coeff:      0.957D-02 0.262D-01 0.328D+00 0.641D+00
 Gap=     0.299 Goal=   None    Shift=    0.000
 Gap=     0.299 Goal=   None    Shift=    0.000
 RMSDP=3.24D-08 MaxDP=8.06D-07 DE=-3.95D-10 OVMax= 1.36D-06

 Cycle  11  Pass 1  IDiag  1:
 E= -700.280557022890     Delta-E=       -0.000000000003 Rises=F Damp=F
 DIIS: error= 1.79D-07 at cycle  11 NSaved=  11.
 NSaved=11 IEnMin=11 EnMin= -700.280557022890     IErMin=11 ErrMin= 1.79D-07
 ErrMax= 1.79D-07  0.00D+00 EMaxC= 1.00D-01 BMatC= 2.73D-11 BMatP= 5.64D-11
 IDIUse=1 WtCom= 1.00D+00 WtEn= 0.00D+00
 Coeff-Com: -0.815D-06 0.411D-05-0.206D-04-0.478D-04-0.325D-03-0.112D-02
 Coeff-Com: -0.992D-03 0.347D-02 0.753D-01 0.428D+00 0.496D+00
 Coeff:     -0.815D-06 0.411D-05-0.206D-04-0.478D-04-0.325D-03-0.112D-02
 Coeff:     -0.992D-03 0.347D-02 0.753D-01 0.428D+00 0.496D+00
 Gap=     0.299 Goal=   None    Shift=    0.000
 Gap=     0.299 Goal=   None    Shift=    0.000
 RMSDP=1.55D-08 MaxDP=4.18D-07 DE=-2.50D-12 OVMax= 6.93D-07

 Cycle  12  Pass 1  IDiag  1:
 E= -700.280557022901     Delta-E=       -0.000000000011 Rises=F Damp=F
 DIIS: error= 1.89D-08 at cycle  12 NSaved=  12.
 NSaved=12 IEnMin=12 EnMin= -700.280557022901     IErMin=12 ErrMin= 1.89D-08
 ErrMax= 1.89D-08  0.00D+00 EMaxC= 1.00D-01 BMatC= 6.03D-13 BMatP= 2.73D-11
 IDIUse=1 WtCom= 1.00D+00 WtEn= 0.00D+00
 Coeff-Com: -0.981D-07 0.220D-06 0.190D-05 0.239D-05-0.227D-04-0.687D-04
 Coeff-Com: -0.141D-02-0.172D-02-0.105D-01 0.711D-01 0.169D+00 0.773D+00
 Coeff:     -0.981D-07 0.220D-06 0.190D-05 0.239D-05-0.227D-04-0.687D-04
 Coeff:     -0.141D-02-0.172D-02-0.105D-01 0.711D-01 0.169D+00 0.773D+00
 Gap=     0.299 Goal=   None    Shift=    0.000
 Gap=     0.299 Goal=   None    Shift=    0.000
 RMSDP=2.84D-09 MaxDP=5.83D-08 DE=-1.09D-11 OVMax= 7.67D-08

 SCF Done:  E(UB3LYP) =  -700.280557023     A.U. after   12 cycles
            NFock= 12  Conv=0.28D-08     -V/T= 2.0043
 <Sx>= 0.0000 <Sy>= 0.0000 <Sz>= 0.0000 <S**2>=-0.0000 S=-0.0000
 <L.S>= 0.000000000000E+00
 KE= 6.972482293282D+02 PE=-2.218149647279D+03 EE= 5.399395922453D+02
 Annihilation of the first spin contaminant:
 S**2 before annihilation    -0.0000,   after     0.0000
 Leave Link  502 at Sat Aug  1 13:58:00 2020, MaxMem=   524288000 cpu:             101.1 elap:              15.4
 (Enter /home/ubuntu/g16/l601.exe)
 Copying SCF densities to generalized density rwf, IOpCl= 1 IROHF=0.

 **********************************************************************

            Population analysis using the SCF density.

 **********************************************************************

 Orbital symmetries:
 Alpha Orbitals:
       Occupied  (A) (A) (A) (A) (A) (A) (A) (A) (A) (A) (A) (A)
                 (A) (A) (A) (A) (A) (A) (A) (A) (A) (A) (A) (A)
                 (A)
       Virtual   (A) (A) (A) (A) (A) (A) (A) (A) (A) (A) (A) (A)
                 (A) (A) (A) (A) (A) (A) (A) (A) (A) (A) (A) (A)
                 (A) (A) (A) (A) (A) (A) (A) (A) (A) (A) (A) (A)
                 (A) (A) (A) (A) (A) (A) (A) (A) (A) (A) (A) (A)
                 (A) (A) (A) (A) (A) (A) (A) (A) (A) (A) (A) (A)
                 (A) (A) (A) (A) (A) (A) (A) (A) (A) (A) (A) (A)
                 (A) (A) (A) (A) (A) (A) (A) (A) (A) (A) (A) (A)
                 (A) (A) (A) (A) (A) (A) (A) (A) (A) (A) (A) (A)
                 (A) (A) (A) (A) (A) (A) (A) (A) (A) (A) (A) (A)
                 (A) (A) (A) (A)
 Beta  Orbitals:
       Occupied  (A) (A) (A) (A) (A) (A) (A) (A) (A) (A) (A) (A)
                 (A) (A) (A) (A) (A) (A) (A) (A) (A) (A) (A) (A)
                 (A)
       Virtual   (A) (A) (A) (A) (A) (A) (A) (A) (A) (A) (A) (A)
                 (A) (A) (A) (A) (A) (A) (A) (A) (A) (A) (A) (A)
                 (A) (A) (A) (A) (A) (A) (A) (A) (A) (A) (A) (A)
                 (A) (A) (A) (A) (A) (A) (A) (A) (A) (A) (A) (A)
                 (A) (A) (A) (A) (A) (A) (A) (A) (A) (A) (A) (A)
                 (A) (A) (A) (A) (A) (A) (A) (A) (A) (A) (A) (A)
                 (A) (A) (A) (A) (A) (A) (A) (A) (A) (A) (A) (A)
                 (A) (A) (A) (A) (A) (A) (A) (A) (A) (A) (A) (A)
                 (A) (A) (A) (A) (A) (A) (A) (A) (A) (A) (A) (A)
                 (A) (A) (A) (A)
 The electronic state is 1-A.
     Natural Orbital Coefficients:
                           1         2         3         4         5
     Eigenvalues --     2.00000   2.00000   2.00000   2.00000   2.00000
   1 1   S  1S          0.90738  -0.07420  -0.01001   0.04345  -0.14507
   2        2S          0.15457  -0.05713   0.03955   0.38506   0.22425
   3        3S         -0.08538  -0.10424  -0.13731   0.15782   0.12932
   4        4S         -0.05696  -0.09223  -0.07133   0.08964   0.08294
   5        5S         -0.00973  -0.04935   0.00266  -0.00946   0.04708
   6        6PX         0.00530  -0.24845   0.24112  -0.24577   0.48379
   7        6PY        -0.01418   0.00856  -0.00491   0.07418  -0.09331
   8        6PZ        -0.01557  -0.04310   0.09721   0.06586   0.22007
   9        7PX         0.01581  -0.02735   0.00542  -0.07381  -0.07958
  10        7PY        -0.00351  -0.09792  -0.03147   0.00456  -0.06018
  11        7PZ        -0.02402  -0.15551  -0.07185   0.12245  -0.00494
  12        8PX         0.00344  -0.01835  -0.01932  -0.03416  -0.04827
  13        8PY         0.00780   0.07061  -0.02152   0.01871   0.03656
  14        8PZ        -0.01133  -0.01569  -0.02211   0.03163  -0.00814
  15        9PX         0.00207  -0.00665  -0.00004  -0.00502  -0.00675
  16        9PY         0.00162  -0.00201  -0.00347  -0.00402  -0.00534
  17        9PZ        -0.00328  -0.00449   0.01107  -0.00088  -0.00615
  18       10D 0       -0.00104   0.01339  -0.05020  -0.01742  -0.00320
  19       10D+1        0.00708   0.04238   0.03905   0.01487   0.04320
  20       10D-1       -0.00090   0.03184  -0.01260  -0.00315   0.02360
  21       10D+2       -0.01034  -0.00507   0.04647   0.02130  -0.01044
  22       10D-2        0.01122   0.01073  -0.00017  -0.02988   0.03950
  23       11D 0       -0.00248   0.00866  -0.01293   0.00340  -0.00434
  24       11D+1       -0.00330  -0.03120  -0.00316  -0.00529  -0.02061
  25       11D-1       -0.00006  -0.00674   0.00465   0.00034  -0.00241
  26       11D+2       -0.00239   0.01078   0.01013   0.00243  -0.00154
  27       11D-2        0.00504  -0.01766   0.01231  -0.01166   0.00559
  28 2   O  1S          0.01479   0.04054  -0.27019  -0.04620  -0.11601
  29        2S         -0.00246  -0.08768   0.11571  -0.07139  -0.11965
  30        3S         -0.00495  -0.08939   0.15780  -0.07169  -0.14564
  31        4S         -0.00365  -0.01276   0.04386  -0.00451  -0.05058
  32        5PX        -0.00964   0.00255   0.01639   0.02642  -0.01830
  33        5PY         0.01991  -0.00245   0.12211   0.02262   0.02252
  34        5PZ         0.01419  -0.07424  -0.02791   0.01575   0.08883
  35        6PX        -0.00741  -0.00101  -0.00969   0.02298  -0.00576
  36        6PY         0.01343  -0.01387   0.06764   0.01002   0.02052
  37        6PZ         0.00967  -0.04091  -0.00960   0.01061   0.05355
  38        7PX        -0.00331   0.00352  -0.01176   0.00896   0.00619
  39        7PY         0.00265   0.00450   0.00947   0.00076   0.01351
  40        7PZ         0.00385  -0.00576   0.00144  -0.00321   0.00796
  41        8D 0        0.00059  -0.00224   0.00042   0.00144   0.00181
  42        8D+1        0.00031   0.00254   0.00149  -0.00074  -0.00106
  43        8D-1        0.00088   0.00448   0.00181  -0.00044  -0.00046
  44        8D+2        0.00087   0.00023   0.00222   0.00148   0.00166
  45        8D-2       -0.00077  -0.00074  -0.00217  -0.00125  -0.00001
  46        9D 0        0.00100  -0.00594  -0.00236   0.00089   0.00132
  47        9D+1       -0.00007   0.00305  -0.00257   0.00048  -0.00020
  48        9D-1        0.00078   0.00088   0.00187  -0.00124  -0.00101
  49        9D+2        0.00163  -0.00404   0.00712  -0.00203   0.00167
  50        9D-2       -0.00066   0.00392   0.00500  -0.00123   0.00154
  51 3   O  1S          0.03031  -0.20292  -0.16328  -0.22907   0.25641
  52        2S          0.05529   0.25370  -0.00368  -0.09552   0.07351
  53        3S          0.06469   0.31058  -0.00821  -0.09846   0.03211
  54        4S          0.01507   0.08360  -0.01337  -0.00838  -0.02699
  55        5PX         0.00430   0.02729  -0.14803  -0.13134  -0.00440
  56        5PY        -0.03310   0.05493   0.06688   0.07196   0.13844
  57        5PZ        -0.01437  -0.08569  -0.00268   0.07266   0.06375
  58        6PX         0.00580   0.02063  -0.09445  -0.09488  -0.01733
  59        6PY        -0.01871   0.03264   0.04470   0.04371   0.05902
  60        6PZ        -0.00790  -0.05161  -0.00516   0.04680   0.02057
  61        7PX         0.00274   0.01062  -0.02013  -0.01976  -0.00347
  62        7PY        -0.00059   0.01693   0.00821   0.01046   0.00819
  63        7PZ         0.00181   0.00220  -0.00446   0.00585   0.00240
  64        8D 0        0.00016  -0.00427  -0.00022   0.00201  -0.00072
  65        8D+1       -0.00034   0.00035  -0.00289  -0.00043   0.00136
  66        8D-1       -0.00139   0.00089  -0.00003   0.00384   0.00545
  67        8D+2        0.00107  -0.00262  -0.00294  -0.00367  -0.00468
  68        8D-2       -0.00045   0.00468  -0.00387  -0.00312   0.00269
  69        9D 0       -0.00024  -0.00178  -0.00285   0.00479   0.00145
  70        9D+1       -0.00005   0.00043  -0.00412  -0.00250  -0.00243
  71        9D-1       -0.00158  -0.00515  -0.00015   0.00408  -0.00316
  72        9D+2        0.00189   0.00188  -0.00393  -0.00794  -0.00057
  73        9D-2       -0.00010  -0.00055  -0.00305  -0.00801  -0.00543
  74 4   O  1S         -0.05949   0.03558  -0.19337  -0.06274  -0.47111
  75        2S          0.04684   0.17532  -0.05670   0.02102   0.08711
  76        3S          0.04982   0.17094  -0.06874   0.05109   0.09974
  77        4S          0.01307   0.04524  -0.03485   0.00984   0.00403
  78        5PX         0.01260   0.08079   0.23233  -0.06176  -0.04786
  79        5PY         0.00923   0.03234   0.06106  -0.10244   0.07729
  80        5PZ         0.05887   0.08622  -0.30428  -0.15578   0.13845
  81        6PX        -0.00746   0.00153   0.13809  -0.00819  -0.06231
  82        6PY         0.00001  -0.00654   0.02266  -0.05424   0.03374
  83        6PZ         0.03114   0.02681  -0.21346  -0.08801   0.07844
  84        7PX        -0.00332   0.00135   0.02178   0.00387  -0.00591
  85        7PY         0.00310   0.01172  -0.00104  -0.01415   0.00573
  86        7PZ         0.00416   0.00474  -0.04033  -0.01266   0.01698
  87        8D 0       -0.00111  -0.00199   0.00200   0.00317  -0.00344
  88        8D+1       -0.00024   0.00027  -0.00351   0.00121   0.00244
  89        8D-1        0.00191   0.00327  -0.00593  -0.00458   0.00215
  90        8D+2       -0.00059  -0.00137  -0.00277   0.00305  -0.00130
  91        8D-2        0.00186   0.00608   0.00786  -0.00515  -0.00013
  92        9D 0        0.00041   0.00788   0.01262  -0.00064  -0.00216
  93        9D+1       -0.00109   0.00192  -0.00442   0.00538   0.00212
  94        9D-1        0.00040  -0.00383  -0.01136   0.00153  -0.00020
  95        9D+2        0.00042   0.00391  -0.00468   0.00563   0.00319
  96        9D-2       -0.00438  -0.01286   0.00452   0.01026  -0.01380
  97 5   H  1S          0.04277   0.14408   0.07574  -0.11937   0.08657
  98        2S          0.00117   0.00749   0.02705  -0.01018   0.02235
  99        3S          0.00023   0.00163   0.00219   0.00166  -0.00093
 100        4PX        -0.00478  -0.01502   0.00054   0.00873  -0.01339
 101        4PY        -0.00476  -0.01681  -0.00592   0.00867  -0.00727
 102        4PZ         0.00033  -0.00318  -0.01627  -0.00268   0.00103
 103        5PX        -0.00096  -0.00560   0.00192  -0.00278  -0.00954
 104        5PY         0.00028   0.00137  -0.00099   0.00071   0.00420
 105        5PZ         0.00122  -0.00199  -0.01260  -0.00849  -0.00139
 106 6   O  1S         -0.00827  -0.14618  -0.12786  -0.07746   0.17616
 107        2S          0.03224  -0.19429  -0.08053  -0.13728  -0.07801
 108        3S          0.02484  -0.17940  -0.09532  -0.10040  -0.10376
 109        4S          0.01141  -0.01030   0.01016  -0.01662  -0.03074
 110        5PX        -0.06306  -0.01997  -0.20168   0.16768  -0.01048
 111        5PY        -0.00244   0.09260  -0.02448   0.13562   0.01756
 112        5PZ         0.05249   0.02490  -0.05017  -0.14796   0.00845
 113        6PX        -0.02339  -0.04334  -0.10736   0.03771  -0.02224
 114        6PY         0.00663   0.03360  -0.00452   0.05023   0.00645
 115        6PZ         0.02433   0.03011  -0.04583  -0.05567   0.01850
 116        7PX        -0.00227   0.00481  -0.01072   0.00413  -0.00256
 117        7PY        -0.00386   0.00887  -0.01385   0.02232   0.00903
 118        7PZ         0.00120   0.00198  -0.00975  -0.00138   0.00808
 119        8D 0       -0.00133   0.00255   0.00102   0.00623   0.00074
 120        8D+1        0.00089   0.00515   0.00343  -0.00080  -0.00021
 121        8D-1       -0.00239  -0.00215   0.00030   0.00587   0.00093
 122        8D+2       -0.00036   0.00070  -0.00268   0.00328   0.00050
 123        8D-2        0.00341  -0.00003   0.00812  -0.01028  -0.00139
 124        9D 0        0.00184  -0.00230   0.00464  -0.00803  -0.00150
 125        9D+1        0.00217   0.00161   0.00218  -0.00584   0.00158
 126        9D-1        0.00054  -0.00622   0.00434  -0.00840  -0.00116
 127        9D+2        0.00016  -0.00162  -0.00196   0.00338  -0.00157
 128        9D-2       -0.00374   0.01468   0.00246   0.02225   0.00355
 129 7   H  1S          0.06077  -0.10961   0.08578  -0.25249  -0.02925
 130        2S          0.00163  -0.01743  -0.00134  -0.01902   0.00203
 131        3S          0.00060   0.00225  -0.00230  -0.00093  -0.00348
 132        4PX         0.00392  -0.01428  -0.00021  -0.01996  -0.00511
 133        4PY         0.00679  -0.01084   0.00653  -0.02517  -0.00401
 134        4PZ        -0.00035   0.00601  -0.00623   0.00319   0.00200
 135        5PX        -0.00145  -0.00719  -0.00693   0.00220  -0.00549
 136        5PY         0.00035  -0.00098   0.00082  -0.00250   0.00092
 137        5PZ         0.00170   0.00293  -0.00293  -0.00556   0.00299
                           6         7         8         9        10
     Eigenvalues --     2.00000   2.00000   2.00000   2.00000   2.00000
   1 1   S  1S          0.08580  -0.24055   0.07406  -0.15568   0.00514
   2        2S         -0.17247   0.56781  -0.08721   0.46827  -0.00199
   3        3S          0.04043  -0.07952  -0.11892   0.06377  -0.01404
   4        4S         -0.01893  -0.13330   0.00324   0.14300  -0.06614
   5        5S         -0.01329  -0.08659  -0.04024   0.11665  -0.07390
   6        6PX         0.51919   0.04085   0.17932   0.06800  -0.01970
   7        6PY        -0.01433  -0.12009  -0.07227   0.01825  -0.00802
   8        6PZ        -0.04457   0.02004   0.17838   0.03334  -0.04843
   9        7PX        -0.15994  -0.03480  -0.08808  -0.04438   0.06386
  10        7PY        -0.02147   0.03072  -0.03499  -0.06202  -0.00226
  11        7PZ         0.00006  -0.20463  -0.11601  -0.03390   0.05074
  12        8PX        -0.06426  -0.01097  -0.03512   0.00888  -0.00961
  13        8PY        -0.00069  -0.02635  -0.01668  -0.00611   0.01472
  14        8PZ        -0.03280  -0.01426  -0.01787   0.00992   0.02322
  15        9PX        -0.00519   0.00073  -0.01938  -0.00423   0.01845
  16        9PY        -0.00717  -0.00007  -0.00676  -0.00123   0.00663
  17        9PZ        -0.00401  -0.00685  -0.00964   0.00936   0.01016
  18       10D 0        0.00913   0.06868  -0.03078  -0.01203   0.02245
  19       10D+1        0.04222  -0.01517  -0.06118  -0.00325   0.08659
  20       10D-1       -0.00811  -0.02150   0.02699   0.02873  -0.05352
  21       10D+2       -0.00795  -0.01511  -0.02463   0.01595   0.02190
  22       10D-2       -0.01912  -0.01604  -0.01485   0.04509  -0.06476
  23       11D 0       -0.00215   0.02893  -0.00010  -0.00598   0.01194
  24       11D+1       -0.00303   0.01136   0.00069  -0.00094  -0.01311
  25       11D-1       -0.00499   0.00236   0.00014  -0.01052   0.00662
  26       11D+2       -0.00693   0.01563  -0.00020   0.00476   0.00420
  27       11D-2        0.00741  -0.03922  -0.01991   0.01128  -0.01411
  28 2   O  1S          0.10261  -0.21908   0.21891   0.47176   0.15988
  29        2S         -0.00212   0.14243   0.08715  -0.04669  -0.01890
  30        3S          0.01197   0.20435   0.10084  -0.10343   0.00467
  31        4S          0.01633   0.08113   0.03514  -0.04770   0.04022
  32        5PX        -0.13401  -0.11894   0.08808   0.04588  -0.16252
  33        5PY         0.13433  -0.04885  -0.00337   0.00146   0.10331
  34        5PZ        -0.04020  -0.24096  -0.06766   0.04716  -0.09343
  35        6PX        -0.09654  -0.08227   0.06604   0.03241  -0.12011
  36        6PY         0.07403  -0.03983  -0.01216   0.02058   0.05429
  37        6PZ        -0.01473  -0.14386  -0.04204   0.01839  -0.04685
  38        7PX        -0.01631  -0.02061   0.02048   0.00782  -0.03662
  39        7PY         0.01301  -0.01680  -0.00988   0.00856   0.00694
  40        7PZ         0.00039  -0.01369  -0.00165   0.00309  -0.00873
  41        8D 0       -0.00046  -0.00796  -0.00175   0.00108  -0.00147
  42        8D+1       -0.00187   0.00123   0.00160   0.00125  -0.00076
  43        8D-1        0.00361   0.00522   0.00329  -0.00023   0.00251
  44        8D+2        0.00638  -0.00058  -0.00070  -0.00062   0.00436
  45        8D-2        0.00267   0.00654  -0.00163  -0.00175   0.00243
  46        9D 0       -0.00147  -0.00752  -0.00503   0.00050  -0.00029
  47        9D+1       -0.00681   0.00054   0.00708   0.00167  -0.00681
  48        9D-1        0.00051   0.00812   0.00280   0.00367   0.00052
  49        9D+2        0.00719   0.00115  -0.00713   0.00424   0.00678
  50        9D-2        0.00888   0.00424  -0.00442  -0.00124   0.00752
  51 3   O  1S         -0.17802  -0.12869   0.39890   0.09130   0.31622
  52        2S         -0.10237  -0.02937  -0.08386  -0.00477   0.09684
  53        3S         -0.13000  -0.00239  -0.12705  -0.05657   0.13538
  54        4S         -0.04332   0.03172  -0.02970  -0.05844   0.07623
  55        5PX        -0.06862   0.02169   0.12935   0.04524  -0.18595
  56        5PY         0.17120   0.07510  -0.02189   0.07840   0.02445
  57        5PZ         0.03972  -0.14847   0.07583   0.05560  -0.15319
  58        6PX        -0.05587   0.01332   0.07474   0.01731  -0.11551
  59        6PY         0.10119   0.05779  -0.03253   0.01655   0.04710
  60        6PZ         0.01827  -0.08161   0.04122   0.01108  -0.08216
  61        7PX        -0.01400   0.00195   0.01784   0.00450  -0.02804
  62        7PY         0.01246   0.01064  -0.01146  -0.00465   0.02263
  63        7PZ        -0.00255  -0.00582   0.00956  -0.00444  -0.01422
  64        8D 0       -0.00077  -0.00558   0.00016  -0.00027  -0.00189
  65        8D+1       -0.00054  -0.00243   0.00177   0.00095  -0.00305
  66        8D-1        0.00361  -0.00408   0.00041   0.00320  -0.00262
  67        8D+2       -0.00623  -0.00248   0.00268  -0.00163  -0.00335
  68        8D-2       -0.00033   0.00278   0.00161   0.00221  -0.00293
  69        9D 0        0.00059  -0.00414   0.00234   0.00038  -0.00413
  70        9D+1       -0.00435  -0.00312   0.00177  -0.00260  -0.00467
  71        9D-1        0.00431  -0.00243  -0.00559  -0.00623   0.00492
  72        9D+2       -0.01009  -0.00570   0.00449   0.00674  -0.01232
  73        9D-2       -0.00660   0.00034  -0.00181  -0.00302  -0.00259
  74 4   O  1S          0.35798  -0.04394  -0.00242   0.46953   0.18734
  75        2S          0.20213  -0.01888   0.02017  -0.13725   0.01265
  76        3S          0.21687  -0.00236   0.04122  -0.22215   0.05674
  77        4S          0.03781   0.03044   0.06677  -0.08204  -0.01227
  78        5PX        -0.01284  -0.00496   0.19082   0.12964  -0.21739
  79        5PY        -0.05034  -0.09428  -0.26382   0.13108   0.01669
  80        5PZ         0.01532   0.10097   0.01410   0.00168  -0.25564
  81        6PX        -0.03068   0.00919   0.12689   0.08025  -0.09454
  82        6PY        -0.04095  -0.04945  -0.16227   0.06121   0.03463
  83        6PZ        -0.00506   0.06617   0.00276   0.00404  -0.14732
  84        7PX        -0.00347  -0.00639   0.01469   0.01882  -0.01772
  85        7PY        -0.00264  -0.00144  -0.00854   0.00363  -0.00961
  86        7PZ        -0.00875   0.00446  -0.00493   0.00363  -0.02701
  87        8D 0       -0.00149   0.00052   0.00407  -0.00224   0.00334
  88        8D+1        0.00188  -0.00381  -0.00262  -0.00182   0.00097
  89        8D-1        0.00164   0.00518   0.00417  -0.00008  -0.00721
  90        8D+2        0.00233   0.00175   0.00538  -0.00314   0.00026
  91        8D-2        0.00085   0.00063   0.00652   0.00443  -0.00879
  92        9D 0        0.00357   0.00190   0.00695   0.00174  -0.00190
  93        9D+1        0.00232  -0.00121   0.00169  -0.00735   0.00230
  94        9D-1       -0.00144   0.00689   0.00406  -0.00113  -0.00022
  95        9D+2        0.00671   0.00144   0.00836  -0.00663  -0.00314
  96        9D-2       -0.00954   0.00813   0.01288   0.00010   0.00962
  97 5   H  1S          0.03816  -0.04996  -0.02509   0.09520  -0.17790
  98        2S         -0.00362  -0.02893  -0.03056   0.03951  -0.00863
  99        3S          0.00349   0.00420   0.00225  -0.00591   0.00623
 100        4PX        -0.00664   0.00478   0.01167  -0.00294   0.00828
 101        4PY        -0.00914   0.00065  -0.00587  -0.00243   0.01696
 102        4PZ        -0.00097   0.00684   0.00188  -0.00363  -0.00320
 103        5PX        -0.00437   0.00479   0.01007   0.00024  -0.00690
 104        5PY        -0.00306   0.00000  -0.00090   0.00158  -0.00155
 105        5PZ        -0.00009   0.00580  -0.00030  -0.00165  -0.00711
 106 6   O  1S         -0.24205   0.07643   0.20484   0.02895   0.40261
 107        2S          0.05876   0.06010  -0.08372  -0.11233  -0.05615
 108        3S          0.08320   0.06871  -0.04606  -0.16987  -0.07738
 109        4S          0.03596   0.04109  -0.01019  -0.06492   0.03795
 110        5PX         0.03369   0.08632   0.10774  -0.04820  -0.09095
 111        5PY         0.04607   0.02129   0.12797  -0.19389   0.08622
 112        5PZ         0.02915   0.19859  -0.13965   0.02658   0.00757
 113        6PX         0.02513   0.06380   0.01877  -0.02251  -0.06882
 114        6PY         0.02228   0.01381   0.05265  -0.10558   0.04805
 115        6PZ         0.01901   0.12628  -0.06252   0.01948   0.00465
 116        7PX         0.00480   0.01478   0.01328  -0.00048  -0.01449
 117        7PY        -0.00167  -0.00703   0.02194  -0.01332  -0.00943
 118        7PZ         0.00675   0.02146  -0.00761   0.00702  -0.00531
 119        8D 0        0.00176  -0.00055   0.00589  -0.00321   0.00159
 120        8D+1       -0.00255   0.00142   0.00217   0.00105   0.00160
 121        8D-1        0.00061  -0.00577   0.00303   0.00075  -0.00167
 122        8D+2        0.00090  -0.00051   0.00122  -0.00489   0.00206
 123        8D-2       -0.00171  -0.00053  -0.00435   0.00252   0.00176
 124        9D 0        0.00051  -0.00093  -0.00353  -0.00163   0.00147
 125        9D+1       -0.00298  -0.00154  -0.00126   0.00770  -0.00095
 126        9D-1        0.00114  -0.00731  -0.00700   0.00321  -0.00170
 127        9D+2        0.00133   0.00288   0.00042  -0.01037   0.00127
 128        9D-2       -0.00162  -0.00109   0.01726  -0.00476   0.00939
 129 7   H  1S         -0.01280  -0.00282  -0.20254   0.09924  -0.02025
 130        2S         -0.02371  -0.01839  -0.01338   0.03179  -0.02945
 131        3S         -0.00277   0.00263   0.00277  -0.00330   0.00074
 132        4PX        -0.00003   0.00538  -0.01611   0.00720  -0.00841
 133        4PY         0.00090   0.00161  -0.01790   0.00248  -0.00076
 134        4PZ         0.00214   0.00763   0.00212  -0.00267   0.00214
 135        5PX        -0.00397   0.00511   0.00241  -0.00201  -0.00715
 136        5PY         0.00247  -0.00292  -0.00393  -0.00102   0.00316
 137        5PZ         0.00630   0.00537  -0.00572  -0.00079   0.00437
                          11        12        13        14        15
     Eigenvalues --     2.00000   2.00000   2.00000   2.00000   2.00000
   1 1   S  1S          0.07653  -0.05774  -0.19104   0.02336  -0.07374
   2        2S         -0.12996  -0.01848   0.32616  -0.05448   0.14377
   3        3S         -0.08336  -0.00865  -0.04846   0.03867  -0.04306
   4        4S          0.01557  -0.00637  -0.08198   0.17173  -0.07167
   5        5S         -0.02551   0.00947  -0.05975   0.08558  -0.03465
   6        6PX         0.19272  -0.40387   0.08004  -0.08793  -0.03297
   7        6PY        -0.13113   0.06306   0.02904   0.07676  -0.00781
   8        6PZ         0.10946   0.19432   0.20054  -0.03156  -0.04138
   9        7PX         0.02526  -0.10502   0.15351   0.22424  -0.16919
  10        7PY         0.14965  -0.01892   0.03568   0.03186   0.13068
  11        7PZ         0.05348  -0.06648  -0.08654  -0.19228  -0.01364
  12        8PX        -0.00655  -0.03713   0.06410   0.01238  -0.03194
  13        8PY         0.01928  -0.01202   0.00330   0.00011   0.02767
  14        8PZ         0.08460  -0.04299  -0.05853  -0.03232   0.00174
  15        9PX        -0.00043  -0.00544   0.01357  -0.00142  -0.01027
  16        9PY        -0.00508  -0.01283   0.00744  -0.00181  -0.01456
  17        9PZ        -0.00883  -0.01051  -0.00910  -0.01737  -0.00666
  18       10D 0        0.01420  -0.02062  -0.02481  -0.03527  -0.04243
  19       10D+1        0.02302   0.06165  -0.00158   0.05078   0.00102
  20       10D-1        0.00210   0.01357  -0.00692   0.00356   0.04552
  21       10D+2       -0.02576  -0.03105   0.00174  -0.03211   0.00195
  22       10D-2        0.04667   0.03223  -0.02233   0.06438   0.03214
  23       11D 0        0.01514  -0.01250  -0.00631  -0.00502  -0.00871
  24       11D+1        0.01027   0.00082   0.00498  -0.01510   0.01829
  25       11D-1        0.00846  -0.00189   0.00080   0.02103  -0.00511
  26       11D+2        0.00731  -0.00877  -0.00105   0.00319   0.00310
  27       11D-2       -0.03005   0.01241   0.00053  -0.01184   0.00145
  28 2   O  1S          0.11099   0.37914   0.18173  -0.06536  -0.30149
  29        2S          0.14514   0.08834  -0.07106  -0.04758   0.08719
  30        3S          0.17002   0.08194  -0.10881  -0.10724   0.11824
  31        4S          0.04203   0.01318  -0.02710  -0.07390   0.02518
  32        5PX         0.01060  -0.11917   0.07173   0.01372   0.07308
  33        5PY         0.05891   0.17534  -0.12164  -0.09063   0.07908
  34        5PZ         0.14865   0.07655   0.06938   0.30852   0.12818
  35        6PX         0.01633  -0.08389   0.05888   0.03780   0.04847
  36        6PY         0.04392   0.11291  -0.06582  -0.01236   0.04029
  37        6PZ         0.09700   0.05202   0.04024   0.18153   0.08603
  38        7PX         0.00398  -0.01581   0.01210   0.01214   0.02040
  39        7PY         0.00437   0.02427  -0.00798   0.01736   0.00567
  40        7PZ         0.02175   0.01525   0.00751   0.03554   0.01606
  41        8D 0        0.00436   0.00220  -0.00042   0.00300   0.00394
  42        8D+1       -0.00335  -0.00284   0.00071  -0.00332  -0.00241
  43        8D-1       -0.00474   0.00093  -0.00292  -0.00948  -0.00215
  44        8D+2        0.00139   0.00631  -0.00440  -0.00476   0.00301
  45        8D-2        0.00064   0.00177  -0.00112   0.00163  -0.00116
  46        9D 0        0.01083   0.00157   0.00243   0.01122   0.00350
  47        9D+1       -0.00158  -0.00577   0.00309   0.00386  -0.00156
  48        9D-1       -0.00136   0.00191  -0.00060  -0.00087  -0.00172
  49        9D+2        0.00328   0.00982  -0.00703   0.00007   0.00128
  50        9D-2       -0.00547   0.00593  -0.00851  -0.01162  -0.00106
  51 3   O  1S         -0.09663   0.14156   0.07143  -0.10339  -0.05793
  52        2S          0.06107  -0.04269   0.05925  -0.15143   0.10699
  53        3S          0.10317  -0.10237   0.08378  -0.21453   0.12119
  54        4S          0.04322  -0.06701   0.03741  -0.09679   0.02244
  55        5PX        -0.08930  -0.03575   0.03172   0.07759  -0.07496
  56        5PY        -0.00015   0.18752  -0.08750   0.15450   0.03886
  57        5PZ        -0.11080   0.06826  -0.09132  -0.04641   0.00201
  58        6PX        -0.05516  -0.04357   0.02698   0.02803  -0.04459
  59        6PY         0.01415   0.09457  -0.03971   0.06889   0.02210
  60        6PZ        -0.06898   0.02186  -0.04931  -0.06154  -0.00227
  61        7PX        -0.00374  -0.01331   0.00230  -0.00841   0.00528
  62        7PY         0.01446   0.01083  -0.00280   0.00655   0.00750
  63        7PZ        -0.00364   0.00027  -0.00412  -0.01103   0.00559
  64        8D 0       -0.00050  -0.00107  -0.00186  -0.00451  -0.00018
  65        8D+1       -0.00379  -0.00003  -0.00050  -0.00054  -0.00240
  66        8D-1       -0.00393   0.00340  -0.00503  -0.00315   0.00140
  67        8D+2       -0.00113  -0.00540   0.00373   0.00014  -0.00394
  68        8D-2       -0.00373   0.00056   0.00024   0.00320  -0.00292
  69        9D 0       -0.00417  -0.00093  -0.00586  -0.01109  -0.00149
  70        9D+1       -0.00532  -0.00657   0.00017  -0.00573  -0.00395
  71        9D-1       -0.00317  -0.00181  -0.00281  -0.01481  -0.00110
  72        9D+2       -0.00594  -0.00579   0.00178   0.00045  -0.00299
  73        9D-2       -0.00131  -0.00753   0.00437  -0.00001  -0.00252
  74 4   O  1S          0.03982  -0.33590   0.02571   0.09143   0.31175
  75        2S         -0.18636   0.05116   0.02818   0.03312  -0.03447
  76        3S         -0.19875   0.05762   0.07215   0.02885  -0.06944
  77        4S         -0.04231  -0.00937   0.04617  -0.02651   0.01281
  78        5PX        -0.18433   0.06300  -0.08785  -0.01347   0.07765
  79        5PY         0.04343   0.06139  -0.12292  -0.05931   0.06838
  80        5PZ         0.18176   0.01620  -0.01656   0.00413   0.18770
  81        6PX        -0.08742   0.00813  -0.04126  -0.00346   0.00989
  82        6PY         0.04285   0.02553  -0.05895  -0.04552   0.02867
  83        6PZ         0.14380  -0.00710   0.00369   0.01255   0.10674
  84        7PX        -0.01550   0.00270  -0.01718  -0.00326  -0.00161
  85        7PY        -0.00702   0.00030  -0.00752  -0.02389   0.01429
  86        7PZ         0.03263  -0.00455   0.00400   0.01680   0.01708
  87        8D 0       -0.00202  -0.00246   0.00501   0.00313  -0.00385
  88        8D+1       -0.00332  -0.00020   0.00029   0.00053  -0.00299
  89        8D-1        0.00276   0.00136  -0.00128  -0.00211   0.00488
  90        8D+2       -0.00274  -0.00177   0.00090  -0.00110  -0.00380
  91        8D-2       -0.00710   0.00402  -0.00279  -0.00104   0.00489
  92        9D 0       -0.01532   0.00279  -0.00319   0.00276  -0.00551
  93        9D+1        0.00031  -0.00156   0.00400   0.00250   0.00023
  94        9D-1        0.01140  -0.00477   0.00532   0.00111   0.00010
  95        9D+2       -0.00182   0.00030   0.00523   0.00332   0.00174
  96        9D-2        0.00495  -0.01223   0.00771   0.00156  -0.01072
  97 5   H  1S         -0.11181   0.09791  -0.11474  -0.02697   0.10829
  98        2S          0.01479   0.02738  -0.02950   0.02536   0.01894
  99        3S          0.00195   0.00313   0.00091  -0.00164   0.00182
 100        4PX         0.00368  -0.00926   0.00712  -0.00139  -0.00911
 101        4PY         0.01724  -0.00938   0.00826   0.00241  -0.00677
 102        4PZ         0.00975  -0.00344   0.00247  -0.00185   0.00148
 103        5PX        -0.01094  -0.00587  -0.00109  -0.00957  -0.00720
 104        5PY         0.01022   0.00347   0.00065   0.00581   0.00512
 105        5PZ        -0.00361  -0.00176  -0.00006  -0.00887  -0.00258
 106 6   O  1S         -0.23255  -0.12650  -0.50376   0.33507   0.28185
 107        2S         -0.16276   0.10861   0.18336  -0.09754   0.10281
 108        3S         -0.15595   0.12756   0.24120  -0.12716   0.12224
 109        4S         -0.03310   0.05895   0.08036  -0.00516   0.00944
 110        5PX         0.08228  -0.06105  -0.21890  -0.15243  -0.07302
 111        5PY         0.07677   0.11749   0.20235   0.15408   0.15239
 112        5PZ         0.05633   0.13401  -0.12547   0.17958  -0.26149
 113        6PX         0.01098  -0.01638  -0.11422  -0.10197  -0.06075
 114        6PY         0.02809   0.07646   0.13830   0.09872   0.09397
 115        6PZ         0.05812   0.07828  -0.11061   0.12202  -0.17099
 116        7PX        -0.00052   0.00524  -0.01812  -0.00757  -0.00819
 117        7PY         0.01443  -0.00030   0.00886   0.00765   0.02612
 118        7PZ         0.01679   0.01482  -0.02933   0.02094  -0.02434
 119        8D 0        0.00094   0.00080   0.00255   0.00026   0.00552
 120        8D+1        0.00134  -0.00185   0.00112   0.00326  -0.00194
 121        8D-1       -0.00225  -0.00349  -0.00054  -0.00756   0.00612
 122        8D+2        0.00318   0.00248   0.00441   0.00351   0.00422
 123        8D-2       -0.00408   0.00326   0.00760   0.00644   0.00067
 124        9D 0       -0.00638   0.00192   0.01482  -0.00086   0.01120
 125        9D+1       -0.00112  -0.00115  -0.00303   0.00235  -0.00354
 126        9D-1       -0.01024  -0.00132   0.00495  -0.00892   0.00455
 127        9D+2        0.00115   0.00501   0.01075   0.00521   0.00482
 128        9D-2        0.01430  -0.00434   0.00166   0.00762   0.01029
 129 7   H  1S         -0.12758   0.04487   0.05081   0.00541  -0.06352
 130        2S          0.00438  -0.02283  -0.02090  -0.00756   0.00273
 131        3S         -0.00007  -0.00368   0.00403  -0.00519   0.00113
 132        4PX        -0.01245   0.00169  -0.00095  -0.00899  -0.00852
 133        4PY        -0.01371   0.00967   0.01603   0.00385  -0.00045
 134        4PZ         0.00821   0.00390  -0.00798   0.00881  -0.00897
 135        5PX        -0.00104  -0.00815  -0.00467  -0.01222  -0.00306
 136        5PY        -0.00456   0.00337   0.00310  -0.00169   0.00539
 137        5PZ        -0.00074   0.00687  -0.00567   0.00538  -0.00951
                          16        17        18        19        20
     Eigenvalues --     2.00000   2.00000   2.00000   2.00000   2.00000
   1 1   S  1S         -0.03407   0.08423   0.16181  -0.01238   0.06249
   2        2S          0.01569  -0.12701  -0.26932   0.03081  -0.11700
   3        3S          0.02451   0.01121   0.07949   0.03114   0.09660
   4        4S         -0.02716  -0.02025   0.07361  -0.05602   0.10173
   5        5S         -0.04306  -0.02930   0.03770  -0.04707   0.03110
   6        6PX        -0.04159   0.17375  -0.03119   0.08981  -0.07666
   7        6PY        -0.08026   0.01230   0.10681   0.07925  -0.04751
   8        6PZ        -0.05623  -0.06434   0.07919   0.03128   0.30390
   9        7PX        -0.09199   0.01080  -0.16105   0.00079   0.03364
  10        7PY        -0.22617  -0.18175   0.10520   0.11358   0.03952
  11        7PZ         0.00602  -0.02217  -0.15832   0.04736  -0.10706
  12        8PX        -0.02564   0.06039  -0.02817   0.04260   0.04048
  13        8PY        -0.05716  -0.00811   0.00896   0.02882  -0.00524
  14        8PZ         0.02330  -0.00280  -0.04569   0.00577  -0.00293
  15        9PX        -0.00197  -0.00210   0.00132  -0.00916   0.01701
  16        9PY         0.00810  -0.00841   0.00586   0.00136   0.00842
  17        9PZ        -0.01804  -0.00623   0.00395   0.00077  -0.01941
  18       10D 0       -0.04451   0.01093   0.03661   0.00189  -0.03959
  19       10D+1        0.00821   0.01466  -0.01873  -0.00534  -0.01464
  20       10D-1        0.02086   0.05063   0.01167   0.09552  -0.05146
  21       10D+2       -0.02930   0.04911   0.08006  -0.02066  -0.03838
  22       10D-2        0.06381   0.02375   0.00982  -0.02940   0.08431
  23       11D 0       -0.00674   0.00753   0.01227  -0.00000  -0.00652
  24       11D+1       -0.01926  -0.00300   0.01313   0.01222   0.01754
  25       11D-1       -0.01520  -0.01902  -0.00877  -0.00726  -0.00032
  26       11D+2        0.00060   0.01698   0.02603  -0.00756   0.00284
  27       11D-2       -0.01014  -0.00810  -0.00721  -0.00187  -0.01265
  28 2   O  1S         -0.10423   0.29198   0.00652  -0.00568  -0.30140
  29        2S          0.11640  -0.07504  -0.12709  -0.06532   0.00871
  30        3S          0.17240  -0.07632  -0.14867  -0.06622  -0.03237
  31        4S          0.06929   0.00905  -0.03271   0.00113  -0.06706
  32        5PX         0.16810   0.24365   0.07228  -0.02698  -0.14196
  33        5PY         0.13541  -0.09432  -0.18317   0.13853  -0.18612
  34        5PZ         0.13203  -0.13384  -0.02594   0.21693   0.01576
  35        6PX         0.10057   0.14963   0.05404  -0.02404  -0.07253
  36        6PY         0.06788  -0.08043  -0.10443   0.08431  -0.08023
  37        6PZ         0.10798  -0.08074  -0.01190   0.15459  -0.03037
  38        7PX         0.01385   0.02889   0.02149   0.00357  -0.01288
  39        7PY         0.00113  -0.01576  -0.01412   0.01970  -0.00665
  40        7PZ         0.04185  -0.01252  -0.00073   0.02634  -0.01039
  41        8D 0        0.00444  -0.00167  -0.00441   0.00589  -0.00336
  42        8D+1        0.00127   0.00693   0.00131  -0.00461  -0.00204
  43        8D-1       -0.00037   0.00311  -0.00118  -0.00419  -0.00344
  44        8D+2        0.00063  -0.00604  -0.00454   0.00340  -0.00260
  45        8D-2       -0.00588  -0.00619   0.00350  -0.00047   0.00581
  46        9D 0        0.00730  -0.00861  -0.00018   0.01160  -0.00861
  47        9D+1       -0.00162   0.00620  -0.00156  -0.00736   0.00455
  48        9D-1       -0.00630  -0.00003  -0.00003  -0.00951   0.01361
  49        9D+2       -0.00342  -0.01419  -0.00115   0.00468   0.00237
  50        9D-2       -0.00134  -0.00127   0.00014   0.00115  -0.00023
  51 3   O  1S         -0.14296  -0.33279   0.17479  -0.03162   0.22600
  52        2S          0.14011   0.09563  -0.05631   0.14809   0.07968
  53        3S          0.12033   0.12650  -0.08228   0.18690   0.06228
  54        4S         -0.02490   0.02461  -0.02403   0.05319  -0.00543
  55        5PX         0.03139  -0.08982  -0.16809   0.08938  -0.14830
  56        5PY         0.12381   0.13961   0.27694   0.01447  -0.02101
  57        5PZ         0.13186   0.08295  -0.18636  -0.24701   0.28766
  58        6PX        -0.00329  -0.07164  -0.11407   0.06157  -0.11561
  59        6PY         0.05515   0.07948   0.17091   0.02586  -0.02660
  60        6PZ         0.05138   0.05803  -0.12734  -0.16209   0.18719
  61        7PX        -0.00825  -0.01669  -0.02100   0.02276  -0.03423
  62        7PY         0.00267   0.01669   0.02185   0.01512  -0.01270
  63        7PZ        -0.00334   0.01297  -0.02743  -0.02777   0.04466
  64        8D 0        0.00171  -0.00052  -0.00726  -0.00545   0.00505
  65        8D+1        0.00451   0.00144  -0.00643  -0.00172   0.00257
  66        8D-1        0.00792   0.00604   0.00024  -0.00514   0.00692
  67        8D+2       -0.00238  -0.00453  -0.01165   0.00081  -0.00231
  68        8D-2        0.00354   0.00270   0.00022   0.00238  -0.00154
  69        9D 0       -0.00077   0.00749  -0.01129  -0.01182   0.01121
  70        9D+1       -0.00562   0.00007  -0.00936  -0.00287  -0.00261
  71        9D-1       -0.00531   0.00393  -0.00199  -0.00568   0.00650
  72        9D+2       -0.00127  -0.00148  -0.01378  -0.00366  -0.00434
  73        9D-2       -0.00632  -0.00650  -0.00290   0.00471  -0.00776
  74 4   O  1S          0.02622  -0.04953  -0.03590   0.01691   0.31480
  75        2S         -0.00059  -0.12266  -0.06836  -0.01462  -0.08897
  76        3S          0.07265  -0.15402  -0.04357  -0.01936  -0.12807
  77        4S          0.00966  -0.04560   0.00174  -0.00592  -0.03937
  78        5PX        -0.12368   0.01372   0.01342   0.21555   0.10691
  79        5PY        -0.31784   0.09258  -0.14142  -0.12796  -0.03102
  80        5PZ         0.00182  -0.06528   0.07703  -0.18885  -0.05050
  81        6PX        -0.03926   0.01286   0.02013   0.14434   0.07877
  82        6PY        -0.16874   0.05095  -0.08604  -0.08763  -0.02076
  83        6PZ         0.01935  -0.03587   0.05598  -0.13522  -0.02622
  84        7PX        -0.00601   0.01307   0.00351   0.04178   0.00648
  85        7PY        -0.04775   0.00046  -0.01764  -0.02225  -0.01276
  86        7PZ         0.00998   0.00376   0.01012  -0.02731   0.00265
  87        8D 0        0.00586   0.00068   0.00168   0.00244   0.00099
  88        8D+1        0.00120  -0.00102  -0.00474  -0.00272  -0.00093
  89        8D-1        0.00070  -0.00278   0.00151  -0.00336  -0.00073
  90        8D+2        0.00822  -0.00255   0.00125   0.00122   0.00078
  91        8D-2       -0.00645  -0.00063  -0.00181   0.00253   0.00271
  92        9D 0       -0.00341   0.00059   0.00198   0.01207   0.00199
  93        9D+1        0.01227   0.00159   0.00587   0.00056  -0.00327
  94        9D-1        0.01257   0.00035   0.00898  -0.00653  -0.00230
  95        9D+2        0.01771   0.00143   0.01202   0.00225  -0.00264
  96        9D-2        0.01636   0.00418   0.00986   0.00645   0.00414
  97 5   H  1S         -0.23279   0.00172  -0.08994  -0.00104  -0.00071
  98        2S          0.00397   0.02512  -0.01581  -0.00120   0.01477
  99        3S          0.00119  -0.00141  -0.00629  -0.00518  -0.00211
 100        4PX         0.01872  -0.00022   0.00709   0.00690   0.00657
 101        4PY         0.01695   0.00555   0.00630  -0.00373  -0.00067
 102        4PZ         0.00672  -0.00401   0.00313  -0.00885  -0.00028
 103        5PX        -0.01102  -0.00679  -0.00518  -0.00171   0.00965
 104        5PY         0.00289   0.00548   0.00062   0.00027   0.00020
 105        5PZ        -0.00876  -0.00638  -0.00671  -0.00568  -0.00104
 106 6   O  1S          0.02949   0.15652  -0.10071  -0.04033  -0.16479
 107        2S          0.00001   0.14884   0.00314   0.10077   0.01469
 108        3S         -0.04561   0.20790  -0.02977   0.14079   0.03855
 109        4S          0.00914   0.06449  -0.02734   0.05144   0.01213
 110        5PX        -0.09325   0.11059  -0.01573   0.28127   0.06747
 111        5PY        -0.13314   0.21811  -0.16310  -0.08684   0.11095
 112        5PZ         0.07277   0.08987  -0.08469   0.11837   0.24026
 113        6PX        -0.02038   0.06828   0.00523   0.18235   0.05591
 114        6PY        -0.06418   0.12999  -0.08136  -0.07818   0.06919
 115        6PZ         0.03203   0.06078  -0.05739   0.08462   0.15781
 116        7PX         0.00102   0.01807  -0.00209   0.04855   0.01030
 117        7PY        -0.01663   0.02386  -0.01190  -0.02643   0.01760
 118        7PZ         0.01276   0.01374   0.00072   0.01115   0.03803
 119        8D 0       -0.00352   0.00202   0.00049  -0.00142   0.00048
 120        8D+1        0.00057   0.00088  -0.00081  -0.00582  -0.00084
 121        8D-1       -0.00034  -0.00049   0.00479  -0.00244  -0.00437
 122        8D+2       -0.00496   0.00360  -0.00439   0.00133   0.00119
 123        8D-2        0.00406  -0.00546   0.00064  -0.00490  -0.00181
 124        9D 0       -0.00217  -0.00027   0.00695  -0.01285  -0.00554
 125        9D+1        0.00212  -0.01046  -0.00026  -0.00165  -0.00872
 126        9D-1        0.00833  -0.00798   0.00605  -0.00256  -0.00817
 127        9D+2       -0.00482   0.01630  -0.00174  -0.00371   0.01172
 128        9D-2       -0.01408   0.00391  -0.00336  -0.00876  -0.00358
 129 7   H  1S          0.14232  -0.11884   0.07798  -0.03812  -0.02812
 130        2S          0.01941  -0.02502   0.01928  -0.02133   0.02252
 131        3S          0.00241   0.00061  -0.00061   0.01044  -0.00016
 132        4PX         0.01183  -0.00254   0.00975   0.00406   0.00217
 133        4PY         0.01090  -0.00425   0.00334  -0.00398  -0.00269
 134        4PZ        -0.00323   0.00343  -0.00795   0.01005   0.00741
 135        5PX        -0.00127   0.00897   0.00350  -0.00488   0.01470
 136        5PY        -0.00392   0.00254  -0.00027   0.00389  -0.00833
 137        5PZ        -0.00279  -0.01042  -0.00607   0.01194  -0.00528
                          21        22        23        24        25
     Eigenvalues --     2.00000   2.00000   2.00000   2.00000   2.00000
   1 1   S  1S         -0.17340  -0.04210   0.05875   0.10239   0.02300
   2        2S          0.22888   0.10619  -0.07150  -0.10636   0.00013
   3        3S         -0.23327  -0.10482  -0.02979   0.33062   0.07117
   4        4S         -0.13327   0.00225  -0.07653  -0.02921  -0.01239
   5        5S         -0.02166   0.01707  -0.02858  -0.05573  -0.03093
   6        6PX        -0.00868  -0.06999  -0.14020  -0.04787   0.13665
   7        6PY         0.15164  -0.05914   0.03153  -0.21941   0.93222
   8        6PZ        -0.06512  -0.43093   0.71379  -0.16428  -0.04940
   9        7PX         0.07371  -0.00740   0.05796   0.12522  -0.01058
  10        7PY         0.11732  -0.16499  -0.14427   0.06138  -0.12478
  11        7PZ         0.14053   0.08258   0.05460  -0.04408  -0.03379
  12        8PX        -0.00804  -0.00357  -0.00069   0.00034  -0.01167
  13        8PY         0.02100  -0.05514  -0.03917  -0.00746  -0.03376
  14        8PZ         0.00807   0.01392   0.00310  -0.02046   0.01343
  15        9PX         0.00389  -0.01296  -0.01131  -0.00620  -0.00431
  16        9PY         0.00837  -0.01510  -0.00856  -0.00388  -0.00467
  17        9PZ        -0.00607   0.00289   0.00983   0.00121  -0.00301
  18       10D 0        0.00174   0.01829   0.04654   0.00453   0.00450
  19       10D+1       -0.02268   0.04155   0.02084  -0.01215   0.00789
  20       10D-1       -0.04330   0.05895   0.03832  -0.01004   0.00763
  21       10D+2        0.06411   0.02359   0.04113   0.03390  -0.02049
  22       10D-2        0.04462  -0.01314  -0.03228   0.01549   0.00892
  23       11D 0       -0.00426   0.00375   0.01062   0.00088   0.00486
  24       11D+1        0.00022  -0.00516  -0.01393   0.00055  -0.01011
  25       11D-1        0.01419  -0.00265   0.00187   0.01767  -0.00273
  26       11D+2        0.00738  -0.00034   0.00728   0.01341   0.00215
  27       11D-2        0.02584   0.00753   0.00297  -0.00431  -0.01434
  28 2   O  1S          0.07567  -0.27833  -0.19601  -0.01551  -0.08832
  29        2S          0.06457  -0.04213   0.04454   0.24165   0.10142
  30        3S          0.07286   0.01574   0.11469   0.26552   0.14067
  31        4S          0.00724   0.05218   0.07828   0.05239   0.05305
  32        5PX         0.21679   0.18639   0.18824   0.09194   0.02420
  33        5PY        -0.09219   0.16542   0.06366  -0.17423   0.03700
  34        5PZ         0.03618  -0.02145  -0.09714   0.02341  -0.08454
  35        6PX         0.14303   0.10021   0.09941   0.06534   0.00943
  36        6PY        -0.05828   0.07197   0.00236  -0.10906   0.00866
  37        6PZ         0.02228   0.01423  -0.02987   0.01354  -0.04699
  38        7PX         0.02146   0.01408   0.01255   0.01531  -0.00221
  39        7PY        -0.01759   0.00496  -0.00649  -0.01524  -0.00395
  40        7PZ         0.00238   0.01089   0.00223  -0.00181  -0.00094
  41        8D 0        0.00320   0.00409   0.00031  -0.00312  -0.00175
  42        8D+1        0.00322   0.00440   0.00461  -0.00210   0.00121
  43        8D-1       -0.00201   0.00430   0.00268  -0.00945   0.00172
  44        8D+2       -0.00401   0.00136  -0.00289  -0.00949  -0.00083
  45        8D-2       -0.00605  -0.00841  -0.00512   0.00556   0.00021
  46        9D 0        0.00614   0.00367   0.00055  -0.00150  -0.00457
  47        9D+1        0.00365  -0.00124  -0.00058   0.00252   0.00205
  48        9D-1       -0.00238  -0.00673  -0.01004  -0.00699   0.00056
  49        9D+2       -0.00233  -0.00385  -0.00857  -0.00917  -0.00412
  50        9D-2       -0.01072  -0.00178   0.00137  -0.00020   0.00258
  51 3   O  1S          0.09656   0.49831  -0.00449   0.13658   0.06803
  52        2S         -0.01107  -0.10788  -0.04802   0.02868   0.05206
  53        3S          0.03136  -0.17299  -0.04981   0.03292   0.04014
  54        4S          0.04644  -0.06445  -0.00972   0.01907  -0.00613
  55        5PX        -0.35141   0.03951   0.10155   0.00323   0.10926
  56        5PY        -0.08438   0.13612   0.09101   0.07916   0.04257
  57        5PZ        -0.00453  -0.02744  -0.14857  -0.07009   0.07132
  58        6PX        -0.20851   0.00895   0.07041   0.00989   0.06233
  59        6PY        -0.01870   0.06357   0.05886   0.05865   0.01294
  60        6PZ         0.02188  -0.03586  -0.09877  -0.04126   0.03803
  61        7PX        -0.03500   0.00068   0.01405  -0.00127   0.00782
  62        7PY         0.00891   0.01145   0.01237   0.00835  -0.00189
  63        7PZ         0.01362  -0.01614  -0.02601  -0.00761   0.00338
  64        8D 0        0.00558  -0.00108  -0.00396  -0.00405  -0.00040
  65        8D+1       -0.00722  -0.00006  -0.00012   0.00036   0.00391
  66        8D-1       -0.00408  -0.00002  -0.00218   0.00172   0.00393
  67        8D+2       -0.00077  -0.00054   0.00057  -0.00275   0.00020
  68        8D-2       -0.01268   0.00082   0.00387   0.00438   0.00494
  69        9D 0        0.00452   0.00162  -0.00520  -0.00734   0.00242
  70        9D+1       -0.00072  -0.00213   0.00287   0.00298   0.00225
  71        9D-1        0.00629  -0.00471  -0.00335   0.00152  -0.00052
  72        9D+2       -0.00694   0.00256   0.00353  -0.00337   0.00344
  73        9D-2       -0.00597  -0.00575   0.00550   0.00989   0.00134
  74 4   O  1S         -0.07102   0.11240   0.21373  -0.05080  -0.01134
  75        2S          0.19472  -0.04789   0.05097   0.10560  -0.02320
  76        3S          0.21295  -0.07945   0.03235   0.10824  -0.02201
  77        4S          0.04804  -0.05049  -0.00931   0.02688  -0.00861
  78        5PX         0.03663  -0.04245  -0.07882  -0.00248  -0.06439
  79        5PY        -0.07325   0.09507   0.10843   0.08289   0.02857
  80        5PZ         0.04195  -0.02855  -0.00762  -0.07891   0.02144
  81        6PX        -0.00842  -0.01930  -0.05877  -0.03468  -0.03820
  82        6PY        -0.06917   0.05238   0.05992   0.04399   0.02605
  83        6PZ         0.01204  -0.00994  -0.00728  -0.06981   0.01575
  84        7PX         0.00090   0.00942  -0.00090  -0.00379  -0.00655
  85        7PY        -0.00931  -0.00133   0.00786   0.00651   0.00194
  86        7PZ         0.00487   0.00167   0.00043  -0.00575   0.00519
  87        8D 0       -0.00185  -0.00090  -0.00093   0.00039   0.00024
  88        8D+1       -0.00128  -0.00035   0.00181   0.00414   0.00189
  89        8D-1       -0.00012  -0.00111  -0.00160  -0.00563   0.00061
  90        8D+2        0.00028  -0.00224  -0.00201  -0.00181   0.00064
  91        8D-2        0.00085  -0.00148  -0.00227  -0.00171  -0.00142
  92        9D 0        0.00504  -0.00193   0.00123   0.00559  -0.00235
  93        9D+1        0.00253  -0.00220   0.00115   0.00768   0.00221
  94        9D-1        0.00207   0.00177  -0.00147  -0.01323  -0.00023
  95        9D+2        0.01134  -0.00094  -0.00029   0.00151  -0.00061
  96        9D-2       -0.00494   0.00095  -0.00448  -0.01293  -0.00099
  97 5   H  1S          0.05565   0.00624   0.03105   0.06758  -0.01752
  98        2S         -0.00462   0.02955   0.01461   0.01218   0.01230
  99        3S         -0.00220   0.00068   0.00223   0.00340   0.00372
 100        4PX        -0.01036  -0.00346  -0.00809  -0.00933   0.00076
 101        4PY        -0.00992   0.00475   0.00072  -0.00602   0.00326
 102        4PZ        -0.00603  -0.00278  -0.00274  -0.00699   0.00293
 103        5PX        -0.00592  -0.01157  -0.01042  -0.00524  -0.00256
 104        5PY        -0.00308   0.00441  -0.00022  -0.00376   0.00103
 105        5PZ        -0.01136  -0.00490  -0.00156  -0.00467   0.00178
 106 6   O  1S          0.07993  -0.31518   0.05719  -0.10063  -0.03330
 107        2S         -0.00168   0.03767   0.01940  -0.00924  -0.03347
 108        3S         -0.01738   0.07977   0.01956   0.01640  -0.02654
 109        4S         -0.01743   0.04113   0.01956  -0.00130   0.00840
 110        5PX         0.07135   0.06314   0.00481   0.04474  -0.00415
 111        5PY        -0.07041   0.09979  -0.03968  -0.01736   0.03161
 112        5PZ         0.13706   0.07449   0.01635  -0.07965   0.01372
 113        6PX         0.06554   0.02865   0.00812   0.03605  -0.00832
 114        6PY        -0.02952   0.05487  -0.02202  -0.01924   0.01344
 115        6PZ         0.09023   0.05590   0.00502  -0.05918   0.00947
 116        7PX         0.00198   0.01035   0.00293   0.00164   0.00082
 117        7PY         0.00089   0.00112  -0.01161   0.00426   0.00344
 118        7PZ         0.02102   0.00668  -0.00640  -0.00826   0.00106
 119        8D 0       -0.00325  -0.00027  -0.00235   0.00090   0.00018
 120        8D+1        0.00194   0.00143   0.00175  -0.00220   0.00108
 121        8D-1       -0.00217  -0.00170  -0.00059   0.00349  -0.00009
 122        8D+2       -0.00281   0.00209  -0.00081   0.00082   0.00006
 123        8D-2       -0.00122  -0.00270  -0.00037  -0.00333  -0.00109
 124        9D 0       -0.00628  -0.00346   0.00065   0.00129  -0.00084
 125        9D+1       -0.00123  -0.00050   0.00214  -0.00857  -0.00081
 126        9D-1       -0.00830  -0.00800  -0.00013   0.00511   0.00022
 127        9D+2        0.00840   0.00386  -0.00163   0.00506  -0.00105
 128        9D-2       -0.00438   0.00523  -0.00161  -0.00386   0.00111
 129 7   H  1S          0.03067  -0.06576   0.01832  -0.03404  -0.02845
 130        2S          0.02818  -0.04127  -0.02389   0.00941  -0.01014
 131        3S         -0.00112  -0.00378  -0.00144   0.00028  -0.00026
 132        4PX         0.00977  -0.00343   0.00259  -0.00144  -0.00309
 133        4PY        -0.00213  -0.00218   0.00278  -0.00362  -0.00174
 134        4PZ        -0.00053   0.00471   0.00022  -0.00178   0.00185
 135        5PX         0.01735  -0.00707  -0.00518   0.00568  -0.00213
 136        5PY        -0.00552   0.00269   0.00411   0.00163  -0.00078
 137        5PZ        -0.00873   0.00235   0.00323  -0.00332   0.00099
                          26        27        28        29        30
     Eigenvalues --     0.00000   0.00000   0.00000   0.00000   0.00000
   1 1   S  1S          0.00692   0.00615   0.00479   0.05393  -0.00377
   2        2S          0.17154  -0.15244  -0.01810   0.43186   0.06380
   3        3S          0.33841  -0.15669   0.01176   1.39738   0.05454
   4        4S         -3.51689   1.36370  -0.04483  -5.20666  -0.27784
   5        5S         -6.76907  -0.25293   2.11173  -2.78238  -1.17777
   6        6PX         0.00882   0.01858   0.02774   0.01407  -0.03023
   7        6PY         0.02441  -0.00799  -0.01145  -0.01522  -0.01958
   8        6PZ         0.00305   0.01139   0.02123   0.09151   0.00128
   9        7PX        -0.01819  -0.01655  -0.25088  -0.08006   0.15746
  10        7PY        -0.07524   0.02215   0.07028   0.02448   0.12635
  11        7PZ         0.02999  -0.13400   0.00309  -0.63954   0.09635
  12        8PX         0.36837  -1.66515   1.87896   0.31554   0.01440
  13        8PY        -1.24520  -2.44094  -1.11527  -0.86171  -0.81845
  14        8PZ        -0.30684   0.34321   2.38172  -0.63763  -0.28862
  15        9PX         1.98789   3.30480   0.45494  -0.32930   0.06090
  16        9PY         1.78354  -0.27944   0.46517   0.14555  -0.76343
  17        9PZ        -1.98673   0.83876   0.28404   0.20411  -0.07372
  18       10D 0       -0.07648  -0.05445   0.09166   0.16369   0.05550
  19       10D+1       -0.04518   0.18038   0.04920   0.17892   0.35423
  20       10D-1       -0.08282   0.20326  -0.09296   0.07000   0.26212
  21       10D+2        0.14678   0.00510   0.22117  -0.13669   0.24836
  22       10D-2       -0.13248   0.01914  -0.25840   0.19692  -0.06990
  23       11D 0        0.11809   0.02301   0.36990   1.73745  -0.39248
  24       11D+1       -0.13078  -0.64659   0.95365   0.40091  -0.13045
  25       11D-1        0.00259   0.53245  -0.04935  -0.52993   0.06502
  26       11D+2        0.09148   0.37985   0.35207  -0.27251  -0.04410
  27       11D-2       -0.74308   0.86267  -1.36105   0.09019   0.17316
  28 2   O  1S         -0.03572  -0.02382  -0.01347  -0.00559  -0.02236
  29        2S          0.00624  -0.67034  -0.34920   0.21374   0.42238
  30        3S          0.77443   2.07130   1.41078  -0.02391  -0.36726
  31        4S          3.27358  -2.71290   1.76401   2.63832   1.26506
  32        5PX        -0.07523   0.03631   0.10035  -0.03092  -0.01513
  33        5PY        -0.16647   0.06112   0.17088  -0.01842   0.07878
  34        5PZ        -0.01953  -0.10934   0.01858  -0.12198   0.09583
  35        6PX        -0.26649  -0.24470  -0.29854   0.26033  -0.37376
  36        6PY        -0.37438  -0.02500  -0.51766  -0.03924  -0.35717
  37        6PZ         0.52454   0.04975   0.10307   0.87150  -0.07694
  38        7PX        -0.95457  -0.39069  -0.40351  -0.39467  -0.08528
  39        7PY        -1.16569   0.68341  -0.59303  -0.87910   0.09057
  40        7PZ         1.44602  -1.09348   0.76341   0.53754   0.30917
  41        8D 0        0.07596  -0.00230   0.13318   0.05433  -0.06909
  42        8D+1        0.05874  -0.07238  -0.12291   0.02167  -0.10314
  43        8D-1        0.09335  -0.03635  -0.25235   0.04780  -0.06240
  44        8D+2       -0.01626  -0.09851  -0.07602   0.01447  -0.03120
  45        8D-2       -0.07938  -0.10537  -0.16657   0.00493   0.09100
[...]
     11 -0.915735D-02  0.164407D-01 -0.138270D-01  0.371416D-02  0.182053D-02
     12 -0.125316D-01 -0.125009D-01  0.197138D-01  0.195054D-01 -0.344976D-02
     13  0.317466D-02  0.652374D-02  0.412582D-01  0.125641D-02  0.197297D-01
     14  0.654604D-02  0.312869D-02  0.122430D-02  0.412490D-01 -0.103933D-03
     15  0.368559D-02 -0.593495D-02 -0.411984D-02  0.157634D-01 -0.818062D-03
     16  0.886786D-02 -0.409390D-02  0.331649D-02 -0.136977D-01 -0.106732D-02
     17 -0.910503D-02  0.128519D-01  0.163905D-02 -0.687593D-02  0.607722D-03
     18 -0.415941D-02  0.887266D-02 -0.136619D-01  0.331906D-02  0.457296D-02
     19 -0.597754D-02  0.369445D-02  0.157832D-01 -0.421949D-02 -0.103596D-02
     20  0.128567D-01 -0.906645D-02 -0.691762D-02  0.160309D-02 -0.350068D-02
                6             7             8             9            10 
      6  0.501717D+00
      7  0.197334D-02  0.743796D-01
      8  0.181736D-02 -0.209302D-01  0.124709D+00
      9  0.304786D-02 -0.207749D-01 -0.430641D-01  0.125645D+00
     10  0.219369D-02 -0.207659D-01 -0.123222D-01 -0.161620D-01  0.125565D+00
     11 -0.684394D-02 -0.208612D-01 -0.188728D-01 -0.123264D-01 -0.431149D-01
     12 -0.349846D-02 -0.528716D-02 -0.327926D-01 -0.414974D-01 -0.414618D-01
     13 -0.119224D-03  0.229894D-03 -0.210734D-01 -0.421021D-02  0.237367D-01
     14  0.197189D-01  0.263798D-03 -0.508519D-03  0.238312D-01 -0.424539D-02
     15 -0.102189D-02 -0.324030D-01 -0.269860D-01  0.605664D-01 -0.307297D-01
     16  0.457527D-02  0.320934D-01  0.295389D-01 -0.108762D-01  0.300130D-01
     17 -0.350524D-02  0.208335D-03 -0.795939D-02 -0.459064D-01  0.959207D-02
     18 -0.104556D-02  0.321791D-01 -0.627322D-01  0.299035D-01 -0.109116D-01
     19 -0.840674D-03 -0.323557D-01  0.115161D-01 -0.307973D-01  0.604802D-01
     20  0.620572D-03  0.228245D-03  0.460609D-01  0.955140D-02 -0.458933D-01
               11            12            13            14            15 
     11  0.124750D+00
     12 -0.327969D-01  0.206910D+00
     13 -0.494386D-03  0.189419D-02  0.159470D+00
     14 -0.208553D-01  0.150332D-02 -0.130110D-02  0.159506D+00
     15  0.115418D-01  0.310986D-01 -0.554065D-02  0.102585D-01  0.533404D-01
     16 -0.627314D-01 -0.321624D-01 -0.267640D-02  0.694791D-02 -0.323577D-01
     17  0.460834D-01 -0.190923D-02  0.559144D-02 -0.166808D-01 -0.181623D-01
     18  0.295094D-01 -0.319911D-01  0.696126D-02 -0.256487D-02  0.417773D-02
     19 -0.270174D-01  0.312217D-01  0.102737D-01 -0.570970D-02 -0.919293D-02
     20 -0.796642D-02 -0.184551D-02 -0.167379D-01  0.556138D-02  0.733893D-02
               16            17            18            19            20 
     16  0.542931D-01
     17 -0.164404D-01  0.363904D-01
     18 -0.946384D-02  0.664551D-02  0.542484D-01
     19  0.420118D-02  0.737427D-02 -0.323248D-01  0.533076D-01
     20  0.663853D-02 -0.183831D-01 -0.164337D-01 -0.181447D-01  0.363727D-01
 Leave Link  716 at Sat Aug  1 14:00:02 2020, MaxMem=   524288000 cpu:               0.1 elap:               0.0
 (Enter /home/ubuntu/g16/l103.exe)

 GradGradGradGradGradGradGradGradGradGradGradGradGradGradGradGradGradGrad
 Berny optimization.
 Red2BG is reusing G-inverse.
 Internal  Forces:  Max     0.000061467 RMS     0.000028102
 Search for a local minimum.
 Step number   1 out of a maximum of    2
 All quantities printed in internal units (Hartrees-Bohrs-Radians)
 Second derivative matrix not updated -- analytic derivatives used.
 The second derivative matrix:
                          R1        R2        R3        R4        R5
           R1           0.59548
           R2           0.00155   0.59531
           R3           0.00995   0.00761   0.25884
           R4           0.00760   0.00993   0.01174   0.25888
           R5          -0.00438  -0.00460   0.00249  -0.00242   0.50182
           R6          -0.00461  -0.00435  -0.00242   0.00249   0.00045
           A1          -0.00005  -0.00002  -0.00644  -0.00644   0.00197
           A2           0.01651  -0.00916   0.00357  -0.01378  -0.00686
           A3           0.01131  -0.00915  -0.01406   0.01701   0.00221
           A4          -0.00918   0.01129   0.01699  -0.01408   0.00301
           A5          -0.00916   0.01644  -0.01383   0.00371   0.00182
           A6          -0.01253  -0.01250   0.01971   0.01951  -0.00345
           A7           0.00317   0.00652   0.04126   0.00126   0.01973
           A8           0.00655   0.00313   0.00122   0.04125  -0.00010
           D1           0.00369  -0.00593  -0.00412   0.01576  -0.00082
           D2           0.00887  -0.00409   0.00332  -0.01370  -0.00107
           D3          -0.00911   0.01285   0.00164  -0.00688   0.00061
           D4          -0.00416   0.00887  -0.01366   0.00332   0.00457
           D5          -0.00598   0.00369   0.01578  -0.00422  -0.00104
           D6           0.01286  -0.00907  -0.00692   0.00160  -0.00350
                          R6        A1        A2        A3        A4
           R6           0.50172
           A1           0.00197   0.07438
           A2           0.00182  -0.02093   0.12471
           A3           0.00305  -0.02077  -0.04306   0.12564
           A4           0.00219  -0.02077  -0.01232  -0.01616   0.12556
           A5          -0.00684  -0.02086  -0.01887  -0.01233  -0.04311
           A6          -0.00350  -0.00529  -0.03279  -0.04150  -0.04146
           A7          -0.00012   0.00023  -0.02107  -0.00421   0.02374
           A8           0.01972   0.00026  -0.00051   0.02383  -0.00425
           D1          -0.00102  -0.03240  -0.02699   0.06057  -0.03073
           D2           0.00458   0.03209   0.02954  -0.01088   0.03001
           D3          -0.00351   0.00021  -0.00796  -0.04591   0.00959
           D4          -0.00105   0.03218  -0.06273   0.02990  -0.01091
           D5          -0.00084  -0.03236   0.01152  -0.03080   0.06048
           D6           0.00062   0.00023   0.04606   0.00955  -0.04589
                          A5        A6        A7        A8        D1
           A5           0.12475
           A6          -0.03280   0.20691
           A7          -0.00049   0.00189   0.15947
           A8          -0.02086   0.00150  -0.00130   0.15951
           D1           0.01154   0.03110  -0.00554   0.01026   0.05334
           D2          -0.06273  -0.03216  -0.00268   0.00695  -0.03236
           D3           0.04608  -0.00191   0.00559  -0.01668  -0.01816
           D4           0.02951  -0.03199   0.00696  -0.00256   0.00418
           D5          -0.02702   0.03122   0.01027  -0.00571  -0.00919
           D6          -0.00797  -0.00185  -0.01674   0.00556   0.00734
                          D2        D3        D4        D5        D6
           D2           0.05429
           D3          -0.01644   0.03639
           D4          -0.00946   0.00665   0.05425
           D5           0.00420   0.00737  -0.03232   0.05331
           D6           0.00664  -0.01838  -0.01643  -0.01814   0.03637
 ITU=  0
     Eigenvalues ---    0.00249   0.00343   0.12179   0.13102   0.15177
     Eigenvalues ---    0.19219   0.19597   0.23655   0.24126   0.30593
     Eigenvalues ---    0.31380   0.50315   0.50325   0.59846   0.59987
 Angle between quadratic step and forces=  62.99 degrees.
 Linear search not attempted -- first point.
 Iteration  1 RMS(Cart)=  0.00232120 RMS(Int)=  0.00000965
 Iteration  2 RMS(Cart)=  0.00000874 RMS(Int)=  0.00000002
 Iteration  3 RMS(Cart)=  0.00000000 RMS(Int)=  0.00000002
 ITry= 1 IFail=0 DXMaxC= 5.57D-03 DCOld= 1.00D+10 DXMaxT= 3.00D-01 DXLimC= 3.00D+00 Rises=F
 Variable       Old X    -DE/DX   Delta X   Delta X   Delta X     New X
                                 (Linear)    (Quad)   (Total)
    R1        2.77034   0.00006   0.00000   0.00007   0.00007   2.77040
    R2        2.77040  -0.00000   0.00000  -0.00000  -0.00000   2.77040
    R3        3.11301   0.00002   0.00000  -0.00001  -0.00001   3.11300
    R4        3.11289  -0.00001   0.00000   0.00011   0.00011   3.11300
    R5        1.83842   0.00001   0.00000   0.00004   0.00004   1.83846
    R6        1.83847   0.00000   0.00000  -0.00001  -0.00001   1.83846
    A1        2.18116   0.00003   0.00000   0.00018   0.00018   2.18134
    A2        1.89520  -0.00001   0.00000   0.00005   0.00005   1.89525
    A3        1.83943   0.00002   0.00000   0.00013   0.00013   1.83956
    A4        1.83988  -0.00002   0.00000  -0.00032  -0.00032   1.83956
    A5        1.89517   0.00002   0.00000   0.00008   0.00008   1.89525
    A6        1.77212  -0.00006   0.00000  -0.00020  -0.00020   1.77192
    A7        1.87432  -0.00002   0.00000   0.00010   0.00010   1.87442
    A8        1.87460  -0.00000   0.00000  -0.00018  -0.00018   1.87442
    D1        0.43654   0.00002   0.00000   0.00738   0.00738   0.44392
    D2        2.81117   0.00003   0.00000   0.00741   0.00741   2.81858
    D3       -1.49655   0.00003   0.00000   0.00731   0.00731  -1.48925
    D4        2.82390   0.00001   0.00000  -0.00532  -0.00532   2.81858
    D5        0.44964  -0.00005   0.00000  -0.00571  -0.00571   0.44392
    D6       -1.48395  -0.00002   0.00000  -0.00530  -0.00530  -1.48925
         Item               Value     Threshold  Converged?
 Maximum Force            0.000061     0.000450     YES
 RMS     Force            0.000028     0.000300     YES
 Maximum Displacement     0.005571     0.001800     NO 
 RMS     Displacement     0.002321     0.001200     NO 
 Predicted change in Energy=-4.530781D-07
                           ----------------------------
                           ! Non-Optimized Parameters !
                           ! (Angstroms and Degrees)  !
 --------------------------                            --------------------------
 ! Name  Definition              Value          Derivative Info.                !
 --------------------------------------------------------------------------------
 ! R1    R(1,2)                  1.466          -DE/DX =    0.0001              !
 ! R2    R(1,3)                  1.466          -DE/DX =    0.0                 !
 ! R3    R(1,4)                  1.6473         -DE/DX =    0.0                 !
 ! R4    R(1,6)                  1.6473         -DE/DX =    0.0                 !
 ! R5    R(4,5)                  0.9729         -DE/DX =    0.0                 !
 ! R6    R(6,7)                  0.9729         -DE/DX =    0.0                 !
 ! A1    A(2,1,3)              124.9818         -DE/DX =    0.0                 !
 ! A2    A(2,1,4)              108.5899         -DE/DX =    0.0                 !
 ! A3    A(2,1,6)              105.3991         -DE/DX =    0.0                 !
 ! A4    A(3,1,4)              105.3991         -DE/DX =    0.0                 !
 ! A5    A(3,1,6)              108.5899         -DE/DX =    0.0                 !
 ! A6    A(4,1,6)              101.5235         -DE/DX =   -0.0001              !
 ! A7    A(1,4,5)              107.3963         -DE/DX =    0.0                 !
 ! A8    A(1,6,7)              107.3964         -DE/DX =    0.0                 !
 ! D1    D(2,1,4,5)             25.4348         -DE/DX =    0.0                 !
 ! D2    D(3,1,4,5)            161.4925         -DE/DX =    0.0                 !
 ! D3    D(6,1,4,5)            -85.3276         -DE/DX =    0.0                 !
 ! D4    D(2,1,6,7)            161.4925         -DE/DX =    0.0                 !
 ! D5    D(3,1,6,7)             25.4349         -DE/DX =   -0.0001              !
 ! D6    D(4,1,6,7)            -85.3276         -DE/DX =    0.0                 !
 --------------------------------------------------------------------------------
 GradGradGradGradGradGradGradGradGradGradGradGradGradGradGradGradGradGrad

 Leave Link  103 at Sat Aug  1 14:00:02 2020, MaxMem=   524288000 cpu:               0.1 elap:               0.0
 (Enter /home/ubuntu/g16/l9999.exe)

 ----------------------------------------------------------------------

 Electric dipole moment (input orientation):
 (Debye = 10**-18 statcoulomb cm , SI units = C m)
                  (au)            (Debye)         (10**-30 SI)
   Tot        0.114132D+01      0.290094D+01      0.967651D+01
   x          0.900157D+00      0.228797D+01      0.763185D+01
   y          0.516150D+00      0.131192D+01      0.437610D+01
   z         -0.475307D+00     -0.120811D+01     -0.402982D+01

 Dipole polarizability, Alpha (input orientation).
 (esu units = cm**3 , SI units = C**2 m**2 J**-1)
 Alpha(0;0):
               (au)            (10**-24 esu)      (10**-40 SI)
   iso        0.387362D+02      0.574012D+01      0.638674D+01
   aniso      0.402121D+01      0.595882D+00      0.663008D+00
   xx         0.387173D+02      0.573731D+01      0.638361D+01
   yx        -0.178524D+01     -0.264546D+00     -0.294347D+00
   yy         0.400434D+02      0.593382D+01      0.660226D+01
   zx         0.329307D+00      0.487982D-01      0.542953D-01
   zy        -0.640578D+00     -0.949238D-01     -0.105617D+00
   zz         0.374481D+02      0.554923D+01      0.617436D+01

 ----------------------------------------------------------------------

 Dipole orientation:
    16          5.25300734          1.12150226          7.90793829
     8          4.49599037         -1.21659233          6.62926701
     8          6.00055879          3.46146876          6.62697528
     8          2.99554875          1.94602736          9.88654688
     1          2.07516040          0.41966918         10.33701274
     8          7.52591175          0.29316845          9.86698210
     1          8.43654082          1.82149544         10.33060110

 Electric dipole moment (dipole orientation):
 (Debye = 10**-18 statcoulomb cm , SI units = C m)
                  (au)            (Debye)         (10**-30 SI)
   Tot        0.114132D+01      0.290094D+01      0.967651D+01
   x          0.000000D+00      0.000000D+00      0.000000D+00
   y          0.000000D+00      0.000000D+00      0.000000D+00
   z          0.114132D+01      0.290094D+01      0.967651D+01

 Dipole polarizability, Alpha (dipole orientation).
 (esu units = cm**3 , SI units = C**2 m**2 J**-1)
 Alpha(0;0):
               (au)            (10**-24 esu)      (10**-40 SI)
   iso        0.387362D+02      0.574012D+01      0.638674D+01
   aniso      0.402121D+01      0.595882D+00      0.663008D+00
   xx         0.390619D+02      0.578837D+01      0.644044D+01
   yx         0.204949D+01      0.303702D+00      0.337915D+00
   yy         0.396271D+02      0.587212D+01      0.653362D+01
   zx        -0.128614D-03     -0.190586D-04     -0.212055D-04
   zy         0.123922D-04      0.183634D-05      0.204320D-05
   zz         0.375198D+02      0.555986D+01      0.618618D+01

 ----------------------------------------------------------------------
 1\1\GINC-LC06-1-2\Freq\UB3LYP\Aug-CC-pVDZ\H2O4S1\UBUNTU\01-Aug-2020\0\
 \#P Geom=AllCheck Guess=TCheck SCRF=Check GenChk UB3LYP/Aug-CC-pVDZ Fr
 eq\\H2SO4_UB3LYP-aug-cc-pVDZ\\0,1\S,5.0089274061,0.6847244153,0.181275
 2866\O,3.9390286894,1.538212679,0.7066575775\O,5.0079740095,-0.7809089
 069,0.2155811839\O,5.2746121791,1.0857293195,-1.3942633072\H,4.9860688
 554,2.0072661791,-1.5123901227\O,6.3907429741,1.2257249668,0.896400468
 7\H,7.0581558863,0.5233513471,0.8085389131\\Version=ES64L-G16RevA.03\S
 tate=1-A\HF=-700.2805574\S2=0.\S2-1=0.\S2A=0.\RMSD=1.265e-09\RMSF=3.51
 2e-05\ZeroPoint=0.0375628\Thermal=0.0430163\Dipole=0.9001568,0.5161499
 ,-0.4753067\DipoleDeriv=2.2824044,-0.0582689,0.0590438,-0.0219711,2.20
 15763,-0.0614871,0.0993001,-0.1307417,2.2638645,-0.7737652,0.1654691,0
 .1598364,0.262747,-0.7021996,-0.1131386,0.1272307,-0.0413108,-0.622526
 2,-0.57091,0.0560964,-0.0209733,-0.0670386,-1.0196068,0.0163949,-0.016
 593,-0.005849,-0.5081979,-0.4902465,-0.0361515,0.0711048,-0.0348852,-0
 .5342767,0.3596169,0.0349821,0.2670859,-1.1424414,0.3061601,0.0152109,
 0.0424989,0.0273081,0.2812057,-0.1152376,0.0178998,-0.0340392,0.303850
 9,-1.1134478,-0.169947,-0.3496757,-0.1236544,-0.4573709,-0.0207645,-0.
 2614854,-0.0193088,-0.5948538,0.359805,0.0275911,0.0381651,-0.0425057,
 0.230672,-0.065384,-0.0013344,-0.0358364,0.3003039\Polar=38.7172554,-1
 .7852436,40.0433964,0.3293067,-0.6405775,37.4480916\Quadrupole=1.45096
 54,-1.5038335,0.0528681,-1.0290877,2.061262,-3.3390814\PG=C01 [X(H2O4S
 1)]\NImag=0\\0.66414448,-0.18858610,0.99397802,-0.09852212,0.06227733,
 0.48728767,-0.32809983,0.19965248,0.12759467,0.34871275,0.20629256,-0.
 24711648,-0.09910151,-0.22646054,0.23077025,0.12971326,-0.09867683,-0.
 14074949,-0.14431029,0.11263673,0.12931083,-0.08396186,0.00314466,0.00
 099630,0.00979653,0.02435790,0.00211339,0.05585589,-0.00073784,-0.5574
 8615,0.00962952,-0.00276825,-0.00797221,0.00276864,0.00846034,0.594907
 92,0.00195069,0.00399419,-0.07441404,0.00267061,-0.01111182,0.01473848
 ,0.00063881,-0.01481053,0.05783743,-0.06470049,0.01127739,0.02122697,0
 .00208446,-0.00133694,0.02714060,0.01107915,0.00372900,-0.00329762,0.0
 9920864,0.00268504,-0.09030253,0.03983114,0.00757697,0.01304714,-0.013
 32483,-0.00575478,-0.01778210,0.03586685,-0.15007738,0.52371909,0.0375
 7073,0.00993512,-0.18420326,0.00810900,0.00430904,-0.01694765,-0.00160
 944,0.00173792,-0.00078492,-0.02262147,-0.08611747,0.26184965,0.006298
 77,-0.00750939,-0.00012848,-0.00321071,0.00222899,-0.00022745,0.000921
 39,-0.00366627,0.00446864,-0.05112342,0.14827360,-0.01414563,0.0484654
 9,0.00195565,-0.01287686,0.00798231,0.00235109,0.00016499,-0.00552622,
 0.00025375,0.00400610,0.00060572,0.13573307,-0.44036679,0.06541462,-0.
 13833453,0.44943549,-0.01270298,0.04473131,-0.01099858,-0.00095522,-0.
 00460267,0.00366087,0.00250339,0.00234962,-0.00554469,0.00007486,0.025
 43980,-0.03989987,0.01039939,-0.06519417,0.05436593,-0.15916844,-0.044
 88591,-0.05075687,-0.02594610,-0.00203767,-0.01164296,-0.00088146,-0.0
 0631661,-0.00822859,0.00204350,-0.00062340,-0.00896279,-0.00126162,-0.
 00225096,0.00045517,0.42223132,-0.01369701,-0.10068450,-0.02132322,0.0
 2712067,0.00974453,0.00292225,-0.03082294,-0.01077050,-0.01436865,0.00
 186433,0.01254475,0.00646274,-0.00105534,-0.00003509,-0.00287178,-0.19
 160484,0.36753906,-0.04188685,-0.03471014,-0.07933431,0.00843134,-0.00
 066123,0.00854818,-0.00624668,-0.00215763,0.00982400,-0.02289250,-0.00
 009219,-0.01627696,-0.00055314,-0.00329873,-0.00196037,0.05058072,0.07
 917928,0.09529250,-0.03451264,0.02690686,-0.00041047,-0.00333710,-0.00
 304430,-0.00278656,0.00719036,0.00129962,0.00179745,0.00140814,-0.0020
 8005,0.00165962,-0.00008991,0.00029193,0.00022540,-0.23701721,0.208195
 12,0.01256711,0.26635836,-0.00791230,0.01448850,0.00070444,-0.00747242
 ,0.00136179,-0.00079973,0.00036107,-0.00490307,-0.00017576,-0.00118947
 ,-0.00085955,-0.00174197,0.00006292,-0.00032784,0.00014788,0.24771940,
 -0.27833825,-0.03825937,-0.23156919,0.26857842,-0.01612272,0.01244901,
 0.00241202,-0.00154011,-0.00146855,0.00143878,0.00160423,0.00048246,-0
 .00165626,0.00036917,-0.00160329,-0.00373699,0.00018666,0.00001648,0.0
 0037670,0.02855533,-0.05000062,-0.01609304,-0.01305255,0.04012450,0.01
 725879\\-0.00001869,0.00006297,-0.00007532,0.00004836,-0.00004107,-0.0
 0000633,-0.00002330,-0.00000075,0.00003156,0.00002160,0.00001993,0.000
 03150,-0.00003269,-0.00002420,-0.00001835,-0.00000485,-0.00003019,0.00
 006632,0.00000957,0.00001330,-0.00002937\\\@


 THERE IS AN OLD, OLD RECIPE IN MAINE FOR STEWING COOT. PLACE THE
 BIRD IN A KETTLE OF WATER WITH A RED BUILDING BRICK FREE OF MORTAR AND
 BLEMISHES. PARBOIL THE COOT AND BRICK TOGETHER FOR THREE HOURS.
 POUR OFF THE WATER, REFILL THE KETTLE, AND AGAIN PARBOIL FOR THREE HOURS.
 ONCE AGAIN POUR OFF THE WATER, FOR THE LAST TIME ADD FRESH WATER,
 AND LET THE COOT AND BRICK SIMMER TOGETHER OVERNIGHT. IN THE MORNING,
 THROW AWAY THE COOT AND EAT THE BRICK.
 Job cpu time:       0 days  0 hours 11 minutes 37.6 seconds.
 Elapsed time:       0 days  0 hours  1 minutes 40.2 seconds.
 File lengths (MBytes):  RWF=     38 Int=      0 D2E=      0 Chk=      3 Scr=      1
 Normal termination of Gaussian 16 at Sat Aug  1 14:00:02 2020.
