 Entering Gaussian System, Link 0=/home/ubuntu/g16/g16
 Input=HBF4_UB3LYP-aug-cc-pVDZ-Opt.gjf
 Output=HBF4_UB3LYP-aug-cc-pVDZ-Opt.log
 Initial command:
 /home/ubuntu/g16/l1.exe "/home/ubuntu/g16/Gau-11283.inp" -scrdir="/home/ubuntu/g16/"
 Entering Link 1 = /home/ubuntu/g16/l1.exe PID=     11285.
  
 Copyright (c) 1988,1990,1992,1993,1995,1998,2003,2009,2016,
            Gaussian, Inc.  All Rights Reserved.
  
 This is part of the Gaussian(R) 16 program.  It is based on
 the Gaussian(R) 09 system (copyright 2009, Gaussian, Inc.),
 the Gaussian(R) 03 system (copyright 2003, Gaussian, Inc.),
 the Gaussian(R) 98 system (copyright 1998, Gaussian, Inc.),
 the Gaussian(R) 94 system (copyright 1995, Gaussian, Inc.),
 the Gaussian 92(TM) system (copyright 1992, Gaussian, Inc.),
 the Gaussian 90(TM) system (copyright 1990, Gaussian, Inc.),
 the Gaussian 88(TM) system (copyright 1988, Gaussian, Inc.),
 the Gaussian 86(TM) system (copyright 1986, Carnegie Mellon
 University), and the Gaussian 82(TM) system (copyright 1983,
 Carnegie Mellon University). Gaussian is a federally registered
 trademark of Gaussian, Inc.
  
 This software contains proprietary and confidential information,
 including trade secrets, belonging to Gaussian, Inc.
  
 This software is provided under written license and may be
 used, copied, transmitted, or stored only in accord with that
 written license.
  
 The following legend is applicable only to US Government
 contracts under FAR:
  
                    RESTRICTED RIGHTS LEGEND
  
 Use, reproduction and disclosure by the US Government is
 subject to restrictions as set forth in subparagraphs (a)
 and (c) of the Commercial Computer Software - Restricted
 Rights clause in FAR 52.227-19.
  
 Gaussian, Inc.
 340 Quinnipiac St., Bldg. 40, Wallingford CT 06492
  
  
 ---------------------------------------------------------------
 Warning -- This program may not be used in any manner that
 competes with the business of Gaussian, Inc. or will provide
 assistance to any competitor of Gaussian, Inc.  The licensee
 of this program is prohibited from giving any competitor of
 Gaussian, Inc. access to this program.  By using this program,
 the user acknowledges that Gaussian, Inc. is engaged in the
 business of creating and licensing software in the field of
 computational chemistry and represents and warrants to the
 licensee that it is not a competitor of Gaussian, Inc. and that
 it will not use this program in any manner prohibited above.
 ---------------------------------------------------------------
  

 Cite this work as:
 Gaussian 16, Revision A.03,
 M. J. Frisch, G. W. Trucks, H. B. Schlegel, G. E. Scuseria, 
 M. A. Robb, J. R. Cheeseman, G. Scalmani, V. Barone, 
 G. A. Petersson, H. Nakatsuji, X. Li, M. Caricato, A. V. Marenich, 
 J. Bloino, B. G. Janesko, R. Gomperts, B. Mennucci, H. P. Hratchian, 
 J. V. Ortiz, A. F. Izmaylov, J. L. Sonnenberg, D. Williams-Young, 
 F. Ding, F. Lipparini, F. Egidi, J. Goings, B. Peng, A. Petrone, 
 T. Henderson, D. Ranasinghe, V. G. Zakrzewski, J. Gao, N. Rega, 
 G. Zheng, W. Liang, M. Hada, M. Ehara, K. Toyota, R. Fukuda, 
 J. Hasegawa, M. Ishida, T. Nakajima, Y. Honda, O. Kitao, H. Nakai, 
 T. Vreven, K. Throssell, J. A. Montgomery, Jr., J. E. Peralta, 
 F. Ogliaro, M. J. Bearpark, J. J. Heyd, E. N. Brothers, K. N. Kudin, 
 V. N. Staroverov, T. A. Keith, R. Kobayashi, J. Normand, 
 K. Raghavachari, A. P. Rendell, J. C. Burant, S. S. Iyengar, 
 J. Tomasi, M. Cossi, J. M. Millam, M. Klene, C. Adamo, R. Cammi, 
 J. W. Ochterski, R. L. Martin, K. Morokuma, O. Farkas, 
 J. B. Foresman, and D. J. Fox, Gaussian, Inc., Wallingford CT, 2016.
 
 ******************************************
 Gaussian 16:  ES64L-G16RevA.03 25-Dec-2016
                 1-Aug-2020 
 ******************************************
 %chk=HBF4_UB3LYP-aug-cc-pVDZ-Opt.chk
 %mem=500MW
 %nproc=7
 Will use up to    7 processors via shared memory.
 ----------------------------------------------------------------------
 #p opt=(maxcycles=777) freq ub3lyp/aug-cc-pVDZ pop=(Bonding,AllOrbital
 s,mk,no,nboread)
 ----------------------------------------------------------------------
 1/6=777,18=20,19=15,26=3,38=1/1,3;
 2/9=110,12=2,17=6,18=5,40=1/2;
 3/5=16,7=10,11=2,25=1,30=1,71=1,74=-5,116=2/1,2,3;
 4//1;
 5/5=2,38=5/2;
 6/7=2,8=2,9=2,10=2,15=8,20=1,22=-1,27=20,28=1,31=1,40=2,96=-1/1,2,7;
 7//1,2,3,16;
 1/6=777,18=20,19=15,26=3/3(2);
 2/9=110/2;
 99//99;
 2/9=110/2;
 3/5=16,7=10,11=2,25=1,30=1,71=1,74=-5,116=2/1,2,3;
 4/5=5,16=3,69=1/1;
 5/5=2,38=5/2;
 7//1,2,3,16;
 1/6=777,18=20,19=15,26=3/3(-5);
 2/9=110/2;
 6/7=2,8=2,9=2,10=2,15=8,19=2,20=1,22=-1,27=20,28=1,31=1,40=2,96=-1/1,2,7;
 99/9=1/99;
 Leave Link    1 at Sat Aug  1 14:25:06 2020, MaxMem=   524288000 cpu:               0.3 elap:               0.1
 (Enter /home/ubuntu/g16/l101.exe)
 -----------------------
 HBF4_UB3LYP-aug-cc-pVDZ
 -----------------------
 Symbolic Z-matrix:
 Charge =  0 Multiplicity = 1
 B                     5.03808   0.62209   1.9284 
 F                     5.75754  -0.45392   1.60037 
 F                     5.46413   1.43163   2.88997 
 F                     6.27686   1.85305   0.11181 
 F                     3.85375   0.81803   1.36177 
 H                     6.82024   1.23134  -0.31122 
 
 Add virtual bond connecting atoms F4         and B1         Dist= 4.76D+00.
 ITRead=  0  0  0  0  0  0
 MicOpt= -1 -1 -1 -1 -1 -1
 NAtoms=      6 NQM=        6 NQMF=       0 NMMI=      0 NMMIF=      0
                NMic=       0 NMicF=      0.
                    Isotopes and Nuclear Properties:
 (Nuclear quadrupole moments (NQMom) in fm**2, nuclear magnetic moments (NMagM)
  in nuclear magnetons)

  Atom         1           2           3           4           5           6
 IAtWgt=          11          19          19          19          19           1
 AtmWgt=  11.0093053  18.9984033  18.9984033  18.9984033  18.9984033   1.0078250
 NucSpn=           3           1           1           1           1           1
 AtZEff=  -0.0000000  -0.0000000  -0.0000000  -0.0000000  -0.0000000  -0.0000000
 NQMom=    4.0590000   0.0000000   0.0000000   0.0000000   0.0000000   0.0000000
 NMagM=    2.6886370   2.6288670   2.6288670   2.6288670   2.6288670   2.7928460
 AtZNuc=   5.0000000   9.0000000   9.0000000   9.0000000   9.0000000   1.0000000
 Leave Link  101 at Sat Aug  1 14:25:06 2020, MaxMem=   524288000 cpu:               0.6 elap:               0.1
 (Enter /home/ubuntu/g16/l103.exe)

 GradGradGradGradGradGradGradGradGradGradGradGradGradGradGradGradGradGrad
 Berny optimization.
 Initialization pass.
                           ----------------------------
                           !    Initial Parameters    !
                           ! (Angstroms and Degrees)  !
 --------------------------                            --------------------------
 ! Name  Definition              Value          Derivative Info.                !
 --------------------------------------------------------------------------------
 ! R1    R(1,2)                  1.3353         estimate D2E/DX2                !
 ! R2    R(1,3)                  1.3272         estimate D2E/DX2                !
 ! R3    R(1,4)                  2.5199         estimate D2E/DX2                !
 ! R4    R(1,5)                  1.3274         estimate D2E/DX2                !
 ! R5    R(4,6)                  0.9278         estimate D2E/DX2                !
 ! A1    A(2,1,3)              119.771          estimate D2E/DX2                !
 ! A2    A(2,1,4)               87.2298         estimate D2E/DX2                !
 ! A3    A(2,1,5)              119.6562         estimate D2E/DX2                !
 ! A4    A(3,1,4)               93.8144         estimate D2E/DX2                !
 ! A5    A(3,1,5)              120.3732         estimate D2E/DX2                !
 ! A6    A(4,1,5)               93.3694         estimate D2E/DX2                !
 ! A7    A(1,4,6)              106.815          estimate D2E/DX2                !
 ! D1    D(2,1,4,6)              4.1672         estimate D2E/DX2                !
 ! D2    D(3,1,4,6)            123.8365         estimate D2E/DX2                !
 ! D3    D(5,1,4,6)           -115.396          estimate D2E/DX2                !
 --------------------------------------------------------------------------------
 Trust Radius=3.00D-01 FncErr=1.00D-07 GrdErr=1.00D-06 EigMax=2.50D+02 EigMin=1.00D-04
 Number of steps in this run=    100 maximum allowed number of steps=    100.
 GradGradGradGradGradGradGradGradGradGradGradGradGradGradGradGradGradGrad

 Leave Link  103 at Sat Aug  1 14:25:06 2020, MaxMem=   524288000 cpu:               0.1 elap:               0.0
 (Enter /home/ubuntu/g16/l202.exe)
                          Input orientation:                          
 ---------------------------------------------------------------------
 Center     Atomic      Atomic             Coordinates (Angstroms)
 Number     Number       Type             X           Y           Z
 ---------------------------------------------------------------------
      1          5           0        5.038080    0.622090    1.928400
      2          9           0        5.757540   -0.453920    1.600370
      3          9           0        5.464130    1.431630    2.889970
      4          9           0        6.276860    1.853050    0.111810
      5          9           0        3.853750    0.818030    1.361770
      6          1           0        6.820240    1.231340   -0.311220
 ---------------------------------------------------------------------
                    Distance matrix (angstroms):
                    1          2          3          4          5
     1  B    0.000000
     2  F    1.335299   0.000000
     3  F    1.327212   2.303141   0.000000
     4  F    2.519888   2.794211   2.925115   0.000000
     5  F    1.327441   2.302000   2.303307   2.916355   0.000000
     6  H    2.926291   2.761088   3.482351   0.927760   3.430712
                    6
     6  H    0.000000
 Stoichiometry    BF4H
 Framework group  C1[X(BF4H)]
 Deg. of freedom    12
 Full point group                 C1      NOp   1
 Largest Abelian subgroup         C1      NOp   1
 Largest concise Abelian subgroup C1      NOp   1
                         Standard orientation:                         
 ---------------------------------------------------------------------
 Center     Atomic      Atomic             Coordinates (Angstroms)
 Number     Number       Type             X           Y           Z
 ---------------------------------------------------------------------
      1          5           0       -0.582875    0.050952   -0.007904
      2          9           0       -0.341973    1.333261   -0.291934
      3          9           0       -0.767565   -0.818837   -0.993219
      4          9           0        1.914641   -0.280327    0.042193
      5          9           0       -0.736697   -0.324123    1.256121
      6          1           0        2.298722    0.555467   -0.078922
 ---------------------------------------------------------------------
 Rotational constants (GHZ):           5.0200915           3.3105844           3.3076207
 Leave Link  202 at Sat Aug  1 14:25:06 2020, MaxMem=   524288000 cpu:               0.1 elap:               0.0
 (Enter /home/ubuntu/g16/l301.exe)
 Standard basis: Aug-CC-pVDZ (5D, 7F)
 Ernie: Thresh=  0.10000D-02 Tol=  0.10000D-05 Strict=F.
 Ernie:  10 primitive shells out of 132 were deleted.
 There are   134 symmetry adapted cartesian basis functions of A   symmetry.
 There are   124 symmetry adapted basis functions of A   symmetry.
   124 basis functions,   226 primitive gaussians,   134 cartesian basis functions
    21 alpha electrons       21 beta electrons
       nuclear repulsion energy       174.2144907719 Hartrees.
 IExCor=  402 DFT=T Ex+Corr=B3LYP ExCW=0 ScaHFX=  0.200000
 ScaDFX=  0.800000  0.720000  1.000000  0.810000 ScalE2=  1.000000  1.000000
 IRadAn=      5 IRanWt=     -1 IRanGd=            0 ICorTp=0 IEmpDi=  4
 NAtoms=    6 NActive=    6 NUniq=    6 SFac= 1.00D+00 NAtFMM=   60 NAOKFM=F Big=F
 Integral buffers will be    131072 words long.
 Raffenetti 2 integral format.
 Two-electron integral symmetry is turned on.
 Leave Link  301 at Sat Aug  1 14:25:06 2020, MaxMem=   524288000 cpu:               0.2 elap:               0.0
 (Enter /home/ubuntu/g16/l302.exe)
 NPDir=0 NMtPBC=     1 NCelOv=     1 NCel=       1 NClECP=     1 NCelD=      1
         NCelK=      1 NCelE2=     1 NClLst=     1 CellRange=     0.0.
 One-electron integrals computed using PRISM.
 One-electron integral symmetry used in STVInt
 NBasis=   124 RedAO= T EigKep=  2.56D-04  NBF=   124
 NBsUse=   124 1.00D-06 EigRej= -1.00D+00 NBFU=   124
 Precomputing XC quadrature grid using
 IXCGrd= 4 IRadAn=           5 IRanWt=          -1 IRanGd=           0 AccXCQ= 0.00D+00.
 Generated NRdTot=       0 NPtTot=           0 NUsed=           0 NTot=          32
 NSgBfM=   134   134   134   134   134 MxSgAt=     6 MxSgA2=     6.
 Leave Link  302 at Sat Aug  1 14:25:06 2020, MaxMem=   524288000 cpu:               1.2 elap:               0.2
 (Enter /home/ubuntu/g16/l303.exe)
 DipDrv:  MaxL=1.
 Leave Link  303 at Sat Aug  1 14:25:06 2020, MaxMem=   524288000 cpu:               0.2 elap:               0.0
 (Enter /home/ubuntu/g16/l401.exe)
 ExpMin= 2.38D-02 ExpMax= 1.47D+04 ExpMxC= 5.03D+02 IAcc=3 IRadAn=         5 AccDes= 0.00D+00
 Harris functional with IExCor=  402 and IRadAn=       5 diagonalized for initial guess.
 HarFok:  IExCor=  402 AccDes= 0.00D+00 IRadAn=         5 IDoV= 1 UseB2=F ITyADJ=14
 ICtDFT=  3500011 ScaDFX=  1.000000  1.000000  1.000000  1.000000
 FoFCou: FMM=F IPFlag=           0 FMFlag=      100000 FMFlg1=           0
         NFxFlg=           0 DoJE=T BraDBF=F KetDBF=T FulRan=T
         wScrn=  0.000000 ICntrl=       500 IOpCl=  0 I1Cent=   200000004 NGrid=           0
         NMat0=    1 NMatS0=      1 NMatT0=    0 NMatD0=    1 NMtDS0=    0 NMtDT0=    0
 Petite list used in FoFCou.
 Harris En= -425.033411340181    
 JPrj=0 DoOrth=F DoCkMO=F.
 Initial guess <Sx>= 0.0000 <Sy>= 0.0000 <Sz>= 0.0000 <S**2>=-0.0000 S=-0.0000
 Leave Link  401 at Sat Aug  1 14:25:07 2020, MaxMem=   524288000 cpu:               4.0 elap:               0.6
 (Enter /home/ubuntu/g16/l502.exe)
 Keep R1 and R2 ints in memory in canonical form, NReq=66780937.
 FoFCou: FMM=F IPFlag=           0 FMFlag=           0 FMFlg1=           0
         NFxFlg=           0 DoJE=F BraDBF=F KetDBF=F FulRan=T
         wScrn=  0.000000 ICntrl=       600 IOpCl=  0 I1Cent=           0 NGrid=           0
         NMat0=    1 NMatS0=   7750 NMatT0=    0 NMatD0=    1 NMtDS0=    0 NMtDT0=    0
 Symmetry not used in FoFCou.
 Two-electron integral symmetry not used.
 UHF open shell SCF:
 Using DIIS extrapolation, IDIIS=  1040.
 NGot=   524288000 LenX=   464179564 LenY=   464161167
 Requested convergence on RMS density matrix=1.00D-08 within 128 cycles.
 Requested convergence on MAX density matrix=1.00D-06.
 Requested convergence on             energy=1.00D-06.
 No special actions if energy rises.

 Cycle   1  Pass 1  IDiag  1:
 E= -424.994232875023    
 DIIS: error= 2.30D-02 at cycle   1 NSaved=   1.
 NSaved= 1 IEnMin= 1 EnMin= -424.994232875023     IErMin= 1 ErrMin= 2.30D-02
 ErrMax= 2.30D-02  0.00D+00 EMaxC= 1.00D-01 BMatC= 4.31D-01 BMatP= 4.31D-01
 IDIUse=3 WtCom= 7.70D-01 WtEn= 2.30D-01
 Coeff-Com:  0.100D+01
 Coeff-En:   0.100D+01
 Coeff:      0.100D+01
 Gap=     0.322 Goal=   None    Shift=    0.000
 Gap=     0.322 Goal=   None    Shift=    0.000
 GapD=    0.322 DampG=1.000 DampE=0.500 DampFc=0.5000 IDamp=-1.
 Damping current iteration by 5.00D-01
 RMSDP=3.91D-03 MaxDP=8.11D-02              OVMax= 1.27D-01

 Cycle   2  Pass 1  IDiag  1:
 E= -425.015111765581     Delta-E=       -0.020878890558 Rises=F Damp=T
 DIIS: error= 5.47D-03 at cycle   2 NSaved=   2.
 NSaved= 2 IEnMin= 2 EnMin= -425.015111765581     IErMin= 2 ErrMin= 5.47D-03
 ErrMax= 5.47D-03  0.00D+00 EMaxC= 1.00D-01 BMatC= 3.04D-02 BMatP= 4.31D-01
 IDIUse=3 WtCom= 9.45D-01 WtEn= 5.47D-02
 Coeff-Com:  0.194D+00 0.806D+00
 Coeff-En:   0.327D+00 0.673D+00
 Coeff:      0.201D+00 0.799D+00
 Gap=     0.390 Goal=   None    Shift=    0.000
 Gap=     0.390 Goal=   None    Shift=    0.000
 RMSDP=6.05D-04 MaxDP=1.32D-02 DE=-2.09D-02 OVMax= 7.96D-02

 Cycle   3  Pass 1  IDiag  1:
 E= -425.061279205727     Delta-E=       -0.046167440146 Rises=F Damp=F
 DIIS: error= 5.02D-04 at cycle   3 NSaved=   3.
 NSaved= 3 IEnMin= 3 EnMin= -425.061279205727     IErMin= 3 ErrMin= 5.02D-04
 ErrMax= 5.02D-04  0.00D+00 EMaxC= 1.00D-01 BMatC= 2.90D-04 BMatP= 3.04D-02
 IDIUse=3 WtCom= 9.95D-01 WtEn= 5.02D-03
 Coeff-Com:  0.116D-01 0.701D-01 0.918D+00
 Coeff-En:   0.000D+00 0.000D+00 0.100D+01
 Coeff:      0.115D-01 0.697D-01 0.919D+00
 Gap=     0.394 Goal=   None    Shift=    0.000
 Gap=     0.394 Goal=   None    Shift=    0.000
 RMSDP=9.71D-05 MaxDP=2.14D-03 DE=-4.62D-02 OVMax= 2.96D-03

 Cycle   4  Pass 1  IDiag  1:
 E= -425.061284519852     Delta-E=       -0.000005314125 Rises=F Damp=F
 DIIS: error= 4.84D-04 at cycle   4 NSaved=   4.
 NSaved= 4 IEnMin= 4 EnMin= -425.061284519852     IErMin= 4 ErrMin= 4.84D-04
 ErrMax= 4.84D-04  0.00D+00 EMaxC= 1.00D-01 BMatC= 2.77D-04 BMatP= 2.90D-04
 IDIUse=3 WtCom= 9.95D-01 WtEn= 4.84D-03
 Coeff-Com: -0.144D-02 0.745D-02 0.500D+00 0.494D+00
 Coeff-En:   0.000D+00 0.000D+00 0.469D+00 0.531D+00
 Coeff:     -0.144D-02 0.742D-02 0.500D+00 0.494D+00
 Gap=     0.393 Goal=   None    Shift=    0.000
 Gap=     0.393 Goal=   None    Shift=    0.000
 RMSDP=4.59D-05 MaxDP=1.42D-03 DE=-5.31D-06 OVMax= 1.71D-03

 Cycle   5  Pass 1  IDiag  1:
 E= -425.061324258223     Delta-E=       -0.000039738371 Rises=F Damp=F
 DIIS: error= 1.07D-04 at cycle   5 NSaved=   5.
 NSaved= 5 IEnMin= 5 EnMin= -425.061324258223     IErMin= 5 ErrMin= 1.07D-04
 ErrMax= 1.07D-04  0.00D+00 EMaxC= 1.00D-01 BMatC= 1.30D-05 BMatP= 2.77D-04
 IDIUse=3 WtCom= 9.99D-01 WtEn= 1.07D-03
 Coeff-Com: -0.164D-02-0.216D-02 0.155D+00 0.238D+00 0.611D+00
 Coeff-En:   0.000D+00 0.000D+00 0.000D+00 0.000D+00 0.100D+01
 Coeff:     -0.164D-02-0.216D-02 0.155D+00 0.237D+00 0.611D+00
 Gap=     0.392 Goal=   None    Shift=    0.000
 Gap=     0.392 Goal=   None    Shift=    0.000
 RMSDP=1.01D-05 MaxDP=2.55D-04 DE=-3.97D-05 OVMax= 3.56D-04

 Cycle   6  Pass 1  IDiag  1:
 E= -425.061326360834     Delta-E=       -0.000002102611 Rises=F Damp=F
 DIIS: error= 9.61D-06 at cycle   6 NSaved=   6.
 NSaved= 6 IEnMin= 6 EnMin= -425.061326360834     IErMin= 6 ErrMin= 9.61D-06
 ErrMax= 9.61D-06  0.00D+00 EMaxC= 1.00D-01 BMatC= 1.41D-07 BMatP= 1.30D-05
 IDIUse=1 WtCom= 1.00D+00 WtEn= 0.00D+00
 Coeff-Com: -0.525D-03-0.789D-03 0.438D-01 0.683D-01 0.199D+00 0.691D+00
 Coeff:     -0.525D-03-0.789D-03 0.438D-01 0.683D-01 0.199D+00 0.691D+00
 Gap=     0.392 Goal=   None    Shift=    0.000
 Gap=     0.392 Goal=   None    Shift=    0.000
 RMSDP=1.53D-06 MaxDP=3.29D-05 DE=-2.10D-06 OVMax= 5.58D-05

 Cycle   7  Pass 1  IDiag  1:
 E= -425.061326372504     Delta-E=       -0.000000011670 Rises=F Damp=F
 DIIS: error= 9.81D-06 at cycle   7 NSaved=   7.
 NSaved= 7 IEnMin= 7 EnMin= -425.061326372504     IErMin= 6 ErrMin= 9.61D-06
 ErrMax= 9.81D-06  0.00D+00 EMaxC= 1.00D-01 BMatC= 6.98D-08 BMatP= 1.41D-07
 IDIUse=1 WtCom= 1.00D+00 WtEn= 0.00D+00
 Coeff-Com: -0.490D-04-0.127D-03 0.457D-03 0.666D-03 0.164D-01 0.422D+00
 Coeff-Com:  0.561D+00
 Coeff:     -0.490D-04-0.127D-03 0.457D-03 0.666D-03 0.164D-01 0.422D+00
 Coeff:      0.561D+00
 Gap=     0.392 Goal=   None    Shift=    0.000
 Gap=     0.392 Goal=   None    Shift=    0.000
 RMSDP=6.57D-07 MaxDP=1.43D-05 DE=-1.17D-08 OVMax= 2.34D-05

 Cycle   8  Pass 1  IDiag  1:
 E= -425.061326383153     Delta-E=       -0.000000010649 Rises=F Damp=F
 DIIS: error= 1.24D-06 at cycle   8 NSaved=   8.
 NSaved= 8 IEnMin= 8 EnMin= -425.061326383153     IErMin= 8 ErrMin= 1.24D-06
 ErrMax= 1.24D-06  0.00D+00 EMaxC= 1.00D-01 BMatC= 5.77D-10 BMatP= 6.98D-08
 IDIUse=1 WtCom= 1.00D+00 WtEn= 0.00D+00
 Coeff-Com: -0.542D-05-0.108D-04-0.478D-03-0.772D-03 0.256D-02 0.117D+00
 Coeff-Com:  0.182D+00 0.700D+00
 Coeff:     -0.542D-05-0.108D-04-0.478D-03-0.772D-03 0.256D-02 0.117D+00
 Coeff:      0.182D+00 0.700D+00
 Gap=     0.392 Goal=   None    Shift=    0.000
 Gap=     0.392 Goal=   None    Shift=    0.000
 RMSDP=1.10D-07 MaxDP=2.04D-06 DE=-1.06D-08 OVMax= 3.03D-06

 Cycle   9  Pass 1  IDiag  1:
 E= -425.061326383254     Delta-E=       -0.000000000101 Rises=F Damp=F
 DIIS: error= 2.01D-07 at cycle   9 NSaved=   9.
 NSaved= 9 IEnMin= 9 EnMin= -425.061326383254     IErMin= 9 ErrMin= 2.01D-07
 ErrMax= 2.01D-07  0.00D+00 EMaxC= 1.00D-01 BMatC= 1.46D-11 BMatP= 5.77D-10
 IDIUse=1 WtCom= 1.00D+00 WtEn= 0.00D+00
 Coeff-Com:  0.831D-06 0.624D-05-0.309D-03-0.421D-03-0.676D-03-0.176D-03
 Coeff-Com:  0.300D-02 0.115D+00 0.884D+00
 Coeff:      0.831D-06 0.624D-05-0.309D-03-0.421D-03-0.676D-03-0.176D-03
 Coeff:      0.300D-02 0.115D+00 0.884D+00
 Gap=     0.392 Goal=   None    Shift=    0.000
 Gap=     0.392 Goal=   None    Shift=    0.000
 RMSDP=1.68D-08 MaxDP=4.42D-07 DE=-1.01D-10 OVMax= 4.18D-07

 Cycle  10  Pass 1  IDiag  1:
 E= -425.061326383258     Delta-E=       -0.000000000004 Rises=F Damp=F
 DIIS: error= 1.39D-08 at cycle  10 NSaved=  10.
 NSaved=10 IEnMin=10 EnMin= -425.061326383258     IErMin=10 ErrMin= 1.39D-08
 ErrMax= 1.39D-08  0.00D+00 EMaxC= 1.00D-01 BMatC= 1.97D-13 BMatP= 1.46D-11
 IDIUse=1 WtCom= 1.00D+00 WtEn= 0.00D+00
 Coeff-Com: -0.959D-07 0.161D-05-0.437D-04-0.523D-04-0.128D-03-0.148D-02
 Coeff-Com: -0.176D-02 0.112D-01 0.178D+00 0.815D+00
 Coeff:     -0.959D-07 0.161D-05-0.437D-04-0.523D-04-0.128D-03-0.148D-02
 Coeff:     -0.176D-02 0.112D-01 0.178D+00 0.815D+00
 Gap=     0.392 Goal=   None    Shift=    0.000
 Gap=     0.392 Goal=   None    Shift=    0.000
 RMSDP=1.61D-09 MaxDP=2.33D-08 DE=-3.87D-12 OVMax= 3.69D-08

 SCF Done:  E(UB3LYP) =  -425.061326383     A.U. after   10 cycles
            NFock= 10  Conv=0.16D-08     -V/T= 2.0054
 <Sx>= 0.0000 <Sy>= 0.0000 <Sz>= 0.0000 <S**2>=-0.0000 S=-0.0000
 <L.S>= 0.000000000000E+00
 KE= 4.227687773578D+02 PE=-1.360559833482D+03 EE= 3.385152389689D+02
 Annihilation of the first spin contaminant:
 S**2 before annihilation    -0.0000,   after    -0.0000
 Leave Link  502 at Sat Aug  1 14:25:16 2020, MaxMem=   524288000 cpu:              62.4 elap:               9.4
 (Enter /home/ubuntu/g16/l601.exe)
 Copying SCF densities to generalized density rwf, IOpCl= 1 IROHF=0.

 **********************************************************************

            Population analysis using the SCF density.

 **********************************************************************

 Orbital symmetries:
 Alpha Orbitals:
       Occupied  (A) (A) (A) (A) (A) (A) (A) (A) (A) (A) (A) (A)
                 (A) (A) (A) (A) (A) (A) (A) (A) (A)
       Virtual   (A) (A) (A) (A) (A) (A) (A) (A) (A) (A) (A) (A)
                 (A) (A) (A) (A) (A) (A) (A) (A) (A) (A) (A) (A)
                 (A) (A) (A) (A) (A) (A) (A) (A) (A) (A) (A) (A)
                 (A) (A) (A) (A) (A) (A) (A) (A) (A) (A) (A) (A)
                 (A) (A) (A) (A) (A) (A) (A) (A) (A) (A) (A) (A)
                 (A) (A) (A) (A) (A) (A) (A) (A) (A) (A) (A) (A)
                 (A) (A) (A) (A) (A) (A) (A) (A) (A) (A) (A) (A)
                 (A) (A) (A) (A) (A) (A) (A) (A) (A) (A) (A) (A)
                 (A) (A) (A) (A) (A) (A) (A)
 Beta  Orbitals:
       Occupied  (A) (A) (A) (A) (A) (A) (A) (A) (A) (A) (A) (A)
                 (A) (A) (A) (A) (A) (A) (A) (A) (A)
       Virtual   (A) (A) (A) (A) (A) (A) (A) (A) (A) (A) (A) (A)
                 (A) (A) (A) (A) (A) (A) (A) (A) (A) (A) (A) (A)
                 (A) (A) (A) (A) (A) (A) (A) (A) (A) (A) (A) (A)
                 (A) (A) (A) (A) (A) (A) (A) (A) (A) (A) (A) (A)
                 (A) (A) (A) (A) (A) (A) (A) (A) (A) (A) (A) (A)
                 (A) (A) (A) (A) (A) (A) (A) (A) (A) (A) (A) (A)
                 (A) (A) (A) (A) (A) (A) (A) (A) (A) (A) (A) (A)
                 (A) (A) (A) (A) (A) (A) (A) (A) (A) (A) (A) (A)
                 (A) (A) (A) (A) (A) (A) (A)
 The electronic state is 1-A.
     Natural Orbital Coefficients:
                           1         2         3         4         5
     Eigenvalues --     2.00000   2.00000   2.00000   2.00000   2.00000
   1 1   B  1S         -0.00148  -0.01901   0.13809  -0.02571  -0.24048
   2        2S         -0.00031   0.00606  -0.08453   0.10294   0.01398
   3        3S          0.01277   0.01023   0.00022  -0.01354   0.04800
   4        4S          0.00410  -0.00325  -0.00811  -0.00591  -0.00744
   5        5PX        -0.01981   0.01776  -0.05341  -0.00327   0.06740
   6        5PY        -0.01574   0.01281  -0.13704   0.00480   0.12574
   7        5PZ        -0.12411   0.17091   0.11438  -0.01558   0.11732
   8        6PX         0.00442  -0.00161   0.00578   0.00334  -0.00824
   9        6PY         0.00080  -0.00617   0.02915   0.02746  -0.05755
  10        6PZ         0.01461   0.00893   0.01408   0.01183   0.02452
  11        7PX         0.00241  -0.00092  -0.00416  -0.00069  -0.00392
  12        7PY        -0.00116   0.00428  -0.00704  -0.00058   0.00298
  13        7PZ        -0.00817   0.00153   0.00191   0.00083   0.00067
  14        8D 0       -0.04070  -0.01611   0.07169   0.03474   0.01007
  15        8D+1        0.01911  -0.00464   0.00325   0.00126  -0.02184
  16        8D-1        0.08467  -0.02905   0.02744   0.00779  -0.07585
  17        8D+2       -0.01835  -0.00204   0.03526   0.01296   0.01117
  18        8D-2        0.01441   0.01810  -0.03743  -0.00783  -0.00276
  19        9D 0        0.00645  -0.00341  -0.02484  -0.00341   0.03245
  20        9D+1        0.00187   0.00391   0.00010  -0.00160   0.00687
  21        9D-1       -0.01422   0.01769  -0.01097  -0.00971   0.02482
  22        9D+2        0.00674  -0.00384  -0.01520   0.00295   0.01095
  23        9D-2       -0.00042   0.00083   0.00913   0.00071  -0.00821
  24 2   F  1S         -0.02160   0.08085   0.06213   0.01734  -0.01948
  25        2S         -0.02565  -0.00110   0.07045  -0.26554  -0.01549
  26        3S         -0.03318  -0.00720   0.15325  -0.28399  -0.04853
  27        4S         -0.00137   0.00696  -0.01480  -0.04707   0.06296
  28        5PX         0.07869   0.19616  -0.22008  -0.06163   0.04029
  29        5PY         0.06082  -0.07691   0.45023  -0.14196  -0.15618
  30        5PZ         0.44016   0.04414   0.01835  -0.02442  -0.05941
  31        6PX         0.05117   0.12484  -0.15193  -0.03808   0.03115
  32        6PY         0.03872  -0.04711   0.22902  -0.08529  -0.07025
  33        6PZ         0.26058   0.02567   0.02490  -0.01420  -0.02748
  34        7PX         0.00901   0.02205  -0.02751  -0.00794  -0.00004
  35        7PY         0.00935  -0.01419   0.04277  -0.00658  -0.01959
  36        7PZ         0.06193  -0.01065  -0.00041  -0.00198  -0.01370
  37        8D 0        0.00198   0.00046   0.00552  -0.00066  -0.00227
  38        8D+1       -0.00071   0.00022  -0.00074  -0.00002   0.00003
  39        8D-1       -0.00539  -0.00282   0.00181   0.00059  -0.00069
  40        8D+2        0.00078  -0.00060   0.00903  -0.00175  -0.00390
  41        8D-2       -0.00097  -0.00300   0.00113   0.00122  -0.00012
  42        9D 0        0.00008   0.00049   0.00130  -0.00135   0.00496
  43        9D+1        0.00105   0.00084  -0.00209   0.00003  -0.00001
  44        9D-1        0.00017  -0.00433  -0.00326   0.00011  -0.00757
  45        9D+2       -0.00019  -0.00399   0.00813   0.00085   0.00181
  46        9D-2       -0.00231  -0.00473   0.00710  -0.00028  -0.00328
  47 3   F  1S          0.06415  -0.13391  -0.05051  -0.05040   0.01438
  48        2S          0.00709   0.19613   0.12092   0.15134  -0.15191
  49        3S         -0.05268   0.26358   0.12476   0.15149  -0.09116
  50        4S         -0.00165   0.01979   0.04827   0.04673  -0.04141
  51        5PX        -0.04838  -0.20847   0.15571   0.03941   0.09972
  52        5PY         0.13817  -0.36100   0.06562   0.17142  -0.00552
  53        5PZ         0.17663   0.05379  -0.16853  -0.08184  -0.25652
  54        6PX        -0.03443  -0.12644   0.09596   0.02315   0.06918
  55        6PY         0.07151  -0.19876   0.02987   0.09713   0.02607
  56        6PZ         0.07152   0.06065  -0.09830  -0.05006  -0.12182
  57        7PX        -0.00382  -0.02280   0.02324   0.00357   0.01037
  58        7PY         0.00861  -0.03165   0.02773   0.01916  -0.00635
  59        7PZ         0.01761   0.00781  -0.02529  -0.00761  -0.01903
  60        8D 0        0.00218   0.00382  -0.00193  -0.00177  -0.00461
  61        8D+1        0.00010  -0.00221   0.00134   0.00078  -0.00000
  62        8D-1        0.00498  -0.00411  -0.00072   0.00358  -0.00622
  63        8D+2       -0.00097   0.00386   0.00061  -0.00287   0.00093
  64        8D-2       -0.00042  -0.00272   0.00084   0.00125   0.00094
  65        9D 0       -0.00509   0.00782   0.00616   0.00093  -0.00354
  66        9D+1       -0.00232  -0.00203   0.00221   0.00092   0.00391
  67        9D-1        0.00171   0.00352  -0.00276   0.00390   0.00178
  68        9D+2       -0.00802   0.00305   0.00233  -0.00159   0.00197
  69        9D-2        0.00125  -0.00433   0.00113   0.00066   0.00216
  70 4   F  1S          0.08084   0.00348  -0.04224   0.12778  -0.03542
  71        2S         -0.01145  -0.06200  -0.02463  -0.29968   0.13269
  72        3S         -0.02561  -0.03369  -0.00481  -0.30040   0.18971
  73        4S         -0.01615  -0.01430   0.01585  -0.06416   0.02373
  74        5PX        -0.05246  -0.05191  -0.06758  -0.13071  -0.21172
  75        5PY         0.12446  -0.07473  -0.00883   0.07938  -0.10688
  76        5PZ         0.33526   0.12482   0.15608   0.02612   0.36549
  77        6PX        -0.03675  -0.02064  -0.03318  -0.07409  -0.12069
  78        6PY         0.06958  -0.01932   0.00900   0.07271  -0.03148
  79        6PZ         0.21292   0.07593   0.09682   0.01311   0.22614
  80        7PX        -0.00265  -0.00773  -0.01835  -0.02820  -0.02092
  81        7PY         0.00884  -0.01277   0.00203  -0.00478  -0.00546
  82        7PZ         0.03487   0.01727   0.01815   0.00401   0.04403
  83        8D 0       -0.00174   0.00172   0.00047   0.00194   0.00152
  84        8D+1        0.00174   0.00106   0.00103   0.00071   0.00249
  85        8D-1        0.00386   0.00222   0.00217   0.00104   0.00512
  86        8D+2       -0.00210   0.00216   0.00044   0.00033   0.00140
  87        8D-2        0.00034  -0.00278  -0.00164  -0.00384  -0.00434
  88        9D 0       -0.00118  -0.00495  -0.00105  -0.00503  -0.00653
  89        9D+1        0.00229  -0.00128  -0.00006   0.00014   0.00160
  90        9D-1        0.00762   0.00083   0.00306  -0.00140   0.00543
  91        9D+2       -0.00198  -0.00427  -0.00377  -0.00572  -0.00395
  92        9D-2       -0.00308   0.00350   0.00441   0.00243   0.00145
  93 5   F  1S         -0.00169   0.14444   0.06526  -0.05876   0.01449
  94        2S         -0.03151  -0.19733  -0.07819   0.09201   0.08195
  95        3S          0.02437  -0.26257  -0.14045   0.08818   0.04321
  96        4S         -0.00779  -0.03707  -0.01713   0.00222  -0.07056
  97        5PX        -0.11593   0.01524   0.09263   0.02482  -0.03021
  98        5PY        -0.05554   0.05909   0.16410   0.08135   0.01090
  99        5PZ         0.20950  -0.18717  -0.09782  -0.07083  -0.13857
 100        6PX        -0.07043   0.00732   0.05110   0.01381  -0.02134
 101        6PY        -0.03541   0.03407   0.07660   0.04178   0.00862
 102        6PZ         0.09023  -0.07838  -0.02787  -0.04192  -0.05969
 103        7PX        -0.01597  -0.00343   0.00845   0.00133  -0.01687
 104        7PY        -0.00330  -0.00323   0.02795   0.00868  -0.02244
 105        7PZ         0.01910  -0.00925   0.00050  -0.00368  -0.00173
 106        8D 0       -0.00497   0.00400   0.00153   0.00212   0.00301
 107        8D+1        0.00260  -0.00089  -0.00151  -0.00086  -0.00092
 108        8D-1        0.00229  -0.00191  -0.00335  -0.00285  -0.00266
 109        8D+2       -0.00092  -0.00036  -0.00018  -0.00032   0.00010
 110        8D-2       -0.00009   0.00058   0.00019   0.00032  -0.00004
 111        9D 0        0.00038  -0.00808  -0.00067   0.00676  -0.00090
 112        9D+1        0.00358  -0.00001   0.00086  -0.00087  -0.00094
 113        9D-1        0.00642  -0.00174   0.00894  -0.00098  -0.00728
 114        9D+2        0.00523  -0.00187  -0.00065   0.00058  -0.00219
 115        9D-2       -0.00374   0.00115  -0.00004  -0.00016   0.00228
 116 6   H  1S          0.03315  -0.10060  -0.05291  -0.07737  -0.14267
 117        2S          0.01074   0.02138  -0.01468   0.06442  -0.00896
 118        3S         -0.00184   0.00156   0.00646   0.00720   0.00495
 119        4PX        -0.00491   0.00651   0.00220   0.00418   0.00273
 120        4PY        -0.00093   0.01674   0.01035   0.02273   0.01881
 121        4PZ         0.01400   0.00200   0.00455  -0.00184   0.01123
 122        5PX        -0.00419  -0.00670   0.00809  -0.00743  -0.01272
 123        5PY         0.00351  -0.00665   0.00059  -0.01247  -0.00342
 124        5PZ         0.01376   0.00312   0.00477   0.00351   0.00961
                           6         7         8         9        10
     Eigenvalues --     2.00000   2.00000   2.00000   2.00000   2.00000
   1 1   B  1S         -0.00506   0.14856  -0.05130   0.21140  -0.26372
   2        2S          0.18405   0.04183  -0.10848  -0.01978   0.00324
   3        3S          0.01606  -0.00563  -0.02413  -0.04170   0.01313
   4        4S          0.01000   0.01837   0.00046   0.00603   0.00189
   5        5PX        -0.02435  -0.04771  -0.02928   0.05001   0.03739
   6        5PY         0.01728  -0.02517  -0.09359   0.20587  -0.01666
   7        5PZ         0.18732  -0.00531   0.22206   0.04389  -0.04369
   8        6PX         0.00438  -0.00114   0.00351  -0.01179  -0.01660
   9        6PY         0.01192   0.03044   0.03014  -0.02556  -0.01800
  10        6PZ        -0.06267   0.05227  -0.07042   0.00242   0.00503
  11        7PX         0.00454   0.00677  -0.00076   0.00185  -0.00306
  12        7PY        -0.00352  -0.00222  -0.00153   0.00306  -0.00090
  13        7PZ         0.00140   0.00163   0.00070  -0.00084  -0.00002
  14        8D 0        0.02872   0.02304   0.05378  -0.02952   0.02324
  15        8D+1       -0.00347  -0.01125  -0.00800  -0.02261   0.02621
  16        8D-1       -0.01280  -0.02565  -0.02955  -0.01912   0.02620
  17        8D+2        0.00332   0.00651   0.03555  -0.02353   0.00844
  18        8D-2       -0.00779   0.00502  -0.00341   0.00043   0.00078
  19        9D 0       -0.03433  -0.00660  -0.04186   0.02514   0.01197
  20        9D+1        0.00616  -0.00146   0.00568   0.00363   0.00130
  21        9D-1        0.03081  -0.02647   0.02426   0.02342  -0.00046
  22        9D+2       -0.00837   0.00252  -0.02535   0.00930  -0.00120
  23        9D-2        0.00330   0.00107   0.01156  -0.00811  -0.00251
  24 2   F  1S          0.10244  -0.15887  -0.11531   0.32450  -0.04009
  25        2S         -0.05231   0.00949  -0.06156  -0.02990  -0.07521
  26        3S         -0.06894   0.01705   0.00055  -0.10557  -0.06551
  27        4S         -0.04621  -0.02332  -0.04536   0.03398   0.01821
  28        5PX        -0.13820   0.05566   0.16449  -0.04554   0.09027
  29        5PY        -0.06041  -0.04887   0.22403  -0.17071   0.00321
  30        5PZ         0.18594  -0.24393   0.00613   0.17797   0.02802
  31        6PX        -0.08587   0.03596   0.09563  -0.01926   0.05624
  32        6PY        -0.03270  -0.03282   0.09981  -0.05966  -0.00486
  33        6PZ         0.11833  -0.14771   0.02280   0.10181   0.01628
  34        7PX        -0.01335   0.01393   0.02288  -0.00295   0.01645
  35        7PY         0.00007  -0.00465   0.01427  -0.01942  -0.00273
  36        7PZ        -0.00016  -0.02393  -0.01605   0.01415   0.00669
  37        8D 0        0.00060  -0.00112   0.00473  -0.00188   0.00071
  38        8D+1       -0.00152   0.00067   0.00039  -0.00131   0.00079
  39        8D-1       -0.00496   0.00375   0.00070  -0.00481   0.00012
  40        8D+2       -0.00143  -0.00086   0.00624  -0.00424  -0.00045
  41        8D-2        0.00282   0.00003  -0.00403   0.00162  -0.00142
  42        9D 0       -0.00115  -0.00219   0.00329   0.00685   0.00010
  43        9D+1       -0.00168   0.00087  -0.00041  -0.00004   0.00044
  44        9D-1       -0.00969   0.00211  -0.00924  -0.00214   0.00179
  45        9D+2        0.00156  -0.00100   0.00197   0.00319  -0.00068
  46        9D-2        0.00234  -0.00096  -0.00353  -0.00037  -0.00284
  47 3   F  1S          0.00647   0.15737   0.12467  -0.15870  -0.50240
  48        2S         -0.18374  -0.04403  -0.10030   0.09246   0.02312
  49        3S         -0.17642  -0.05490  -0.06405   0.16475   0.01991
  50        4S         -0.06606   0.07338  -0.03198   0.00431  -0.02473
  51        5PX        -0.00857   0.00321  -0.13738   0.23865  -0.12297
  52        5PY         0.00180   0.08302  -0.18146  -0.16283   0.22234
  53        5PZ         0.15864  -0.04543  -0.01908  -0.19831  -0.04376
  54        6PX        -0.00441   0.00139  -0.08589   0.15846  -0.08160
  55        6PY         0.00638   0.04439  -0.10331  -0.06810   0.12911
  56        6PZ         0.11539  -0.03045   0.02097  -0.09449  -0.03438
  57        7PX         0.00208   0.01066  -0.00850   0.03152  -0.01471
  58        7PY         0.00716   0.01794   0.00040  -0.01992   0.01634
  59        7PZ         0.00266   0.00296  -0.01203  -0.00271  -0.00932
  60        8D 0        0.00219  -0.00077   0.00085  -0.00345  -0.00199
  61        8D+1       -0.00040  -0.00048  -0.00241   0.00167  -0.00061
  62        8D-1       -0.00014   0.00105  -0.00562  -0.00573   0.00276
  63        8D+2        0.00052  -0.00158   0.00361   0.00242  -0.00254
  64        8D-2       -0.00063   0.00034  -0.00238   0.00183  -0.00035
  65        9D 0        0.00849  -0.00018   0.01276  -0.00507  -0.00039
  66        9D+1        0.00167  -0.00111  -0.00268   0.00698  -0.00354
  67        9D-1        0.00790  -0.00272  -0.00175   0.00356   0.00361
  68        9D+2        0.00328   0.00066   0.00580  -0.00132  -0.00523
  69        9D-2       -0.00181  -0.00175  -0.00618   0.00672  -0.00183
  70 4   F  1S          0.05174   0.08476   0.01299  -0.08112   0.02181
  71        2S          0.06668  -0.02634  -0.09651   0.02031   0.04217
  72        3S          0.02391  -0.11270  -0.11786  -0.00981   0.03502
  73        4S          0.00538  -0.01567  -0.00917   0.00572   0.01658
  74        5PX        -0.06142   0.29113   0.17107   0.28308   0.27292
  75        5PY         0.17185   0.25694   0.03106   0.00022  -0.10822
  76        5PZ        -0.12385   0.25207   0.04292   0.00428   0.05210
  77        6PX        -0.06038   0.15643   0.10751   0.16805   0.16978
  78        6PY         0.07130   0.09833   0.01080  -0.02595  -0.07320
  79        6PZ        -0.07162   0.16806   0.02992   0.00574   0.03456
  80        7PX        -0.00475   0.04042   0.01532   0.04064   0.03115
  81        7PY         0.02377   0.02623  -0.00026   0.00531  -0.00907
  82        7PZ        -0.00906   0.02781   0.01226   0.00256   0.00226
  83        8D 0       -0.00228  -0.00554  -0.00098  -0.00187  -0.00054
  84        8D+1       -0.00063   0.00020   0.00021  -0.00075  -0.00027
  85        8D-1       -0.00261   0.00171   0.00038  -0.00043   0.00074
  86        8D+2       -0.00456  -0.00439   0.00054   0.00026   0.00240
  87        8D-2        0.00243   0.00805   0.00236   0.00490   0.00334
  88        9D 0        0.00369   0.00640   0.00159   0.00352   0.00109
  89        9D+1       -0.00115   0.00379  -0.00240   0.00133  -0.00194
  90        9D-1        0.00035   0.00864   0.00172   0.00244   0.00149
  91        9D+2        0.00611   0.00701  -0.00064   0.00566   0.00493
  92        9D-2       -0.00978  -0.00682   0.00197   0.00028   0.00317
  93 5   F  1S          0.04936  -0.03772  -0.14655   0.13398   0.23633
  94        2S         -0.04572  -0.13698   0.30672   0.06809  -0.05917
  95        3S         -0.12750  -0.16925   0.26089   0.08290  -0.06002
  96        4S          0.06148  -0.06565   0.11747   0.00309  -0.02303
  97        5PX         0.11650  -0.12360   0.02363  -0.14667   0.31550
  98        5PY         0.29345   0.00595   0.09817   0.12714   0.06242
  99        5PZ        -0.26164  -0.17908  -0.03941   0.10749   0.03810
 100        6PX         0.06835  -0.08034   0.00932  -0.09158   0.19893
 101        6PY         0.16750   0.00203   0.04758   0.08731   0.03315
 102        6PZ        -0.10956  -0.09533   0.02245   0.05955   0.01448
 103        7PX         0.01341  -0.01216   0.00424  -0.01786   0.03845
 104        7PY         0.02821   0.00672   0.01745  -0.00488   0.00467
 105        7PZ        -0.02420  -0.00802  -0.00764   0.00131   0.00454
 106        8D 0        0.00749   0.00267   0.00499  -0.00305  -0.00226
 107        8D+1       -0.00287   0.00205  -0.00141   0.00163  -0.00438
 108        8D-1       -0.00819  -0.00007  -0.00389  -0.00298  -0.00044
 109        8D+2       -0.00178   0.00019   0.00037  -0.00155   0.00035
 110        8D-2        0.00129  -0.00073   0.00038  -0.00023   0.00172
 111        9D 0       -0.00328   0.00306  -0.00424  -0.00476   0.00233
 112        9D+1       -0.00214   0.00448   0.00139   0.00392  -0.00910
 113        9D-1       -0.00478  -0.00171   0.00221  -0.00865   0.00228
 114        9D+2       -0.00181  -0.00127  -0.00498  -0.00296   0.00136
 115        9D-2        0.00163  -0.00134   0.00134   0.00056   0.00195
 116 6   H  1S          0.13608   0.24344   0.04429   0.09766   0.01969
 117        2S         -0.01649  -0.00293   0.00590  -0.00819  -0.00979
 118        3S         -0.00322  -0.01102  -0.00140  -0.00657  -0.00181
 119        4PX        -0.01388  -0.00871   0.00344   0.00297   0.00877
 120        4PY        -0.01952  -0.03367  -0.00407  -0.01873  -0.00846
 121        4PZ        -0.00101   0.01630   0.00261   0.00287   0.00261
 122        5PX         0.00314   0.01104   0.00890   0.00466   0.00851
 123        5PY         0.00526   0.01127   0.00073   0.00415  -0.00153
 124        5PZ        -0.00647   0.00798  -0.00189  -0.00155   0.00264
                          11        12        13        14        15
     Eigenvalues --     2.00000   2.00000   2.00000   2.00000   2.00000
   1 1   B  1S         -0.33922   0.35415  -0.15273   0.55951   0.05957
   2        2S         -0.07045   0.10623   0.02692  -0.04711  -0.03124
   3        3S          0.04279   0.00450  -0.05112   0.00389   0.03602
   4        4S          0.00663  -0.00714  -0.00462   0.00570  -0.00246
   5        5PX         0.02066   0.03444   0.00268  -0.01389   0.04165
   6        5PY         0.06179  -0.08273  -0.13840   0.06162  -0.07528
   7        5PZ         0.10924   0.05305   0.01512   0.01605   0.00920
   8        6PX         0.00756  -0.02106   0.01272   0.00720  -0.01125
   9        6PY         0.01773  -0.01860   0.07258  -0.01960  -0.03910
  10        6PZ        -0.02084  -0.01133   0.00461  -0.00765   0.00945
  11        7PX         0.00127  -0.00559  -0.00131   0.00336  -0.00495
  12        7PY         0.00097   0.00191  -0.00154   0.00010  -0.00172
  13        7PZ         0.00333   0.00022   0.00029   0.00165   0.00087
  14        8D 0       -0.00308   0.01800   0.00392   0.00749   0.04000
  15        8D+1       -0.00448  -0.00212  -0.01323   0.01027  -0.01646
  16        8D-1       -0.04381  -0.01441  -0.00906  -0.02927   0.03703
  17        8D+2        0.00322  -0.00221   0.00198   0.01332   0.03254
  18        8D-2        0.00030   0.00207  -0.00300   0.01232   0.00510
  19        9D 0       -0.01020  -0.00056  -0.03739   0.00661   0.01247
  20        9D+1        0.00151   0.00134  -0.00452   0.00248  -0.00209
  21        9D-1        0.01521   0.00664  -0.03066   0.01172   0.00318
  22        9D+2       -0.00849  -0.00777  -0.01463   0.00622  -0.00118
  23        9D-2        0.00476  -0.00050   0.01162  -0.00168  -0.00194
  24 2   F  1S          0.01998   0.16199   0.14831   0.34142  -0.02329
  25        2S         -0.05684   0.01280   0.07131   0.01206  -0.04610
  26        3S         -0.07745   0.02443   0.10652  -0.01574  -0.00873
  27        4S         -0.04762   0.01820  -0.06990   0.02585   0.05258
  28        5PX        -0.00233   0.08864   0.02645   0.11146   0.39057
  29        5PY         0.02685   0.00014   0.07683   0.01553   0.11627
  30        5PZ         0.25145   0.15444  -0.01211  -0.04188   0.01707
  31        6PX         0.00050   0.05347   0.01032   0.07492   0.24494
  32        6PY         0.02961  -0.00738   0.02001   0.02382   0.04671
  33        6PZ         0.16890   0.10749   0.00340  -0.02178   0.01493
  34        7PX        -0.00060   0.01474   0.00425   0.00888   0.04587
  35        7PY         0.00958  -0.00328   0.01363  -0.00478  -0.00153
  36        7PZ         0.02172   0.01935   0.00332  -0.00547   0.00675
  37        8D 0        0.00119   0.00052   0.00087  -0.00011   0.00284
  38        8D+1       -0.00047   0.00014   0.00021   0.00076   0.00099
  39        8D-1       -0.00292  -0.00157   0.00160   0.00087   0.00087
  40        8D+2        0.00099  -0.00060   0.00197  -0.00018   0.00143
  41        8D-2       -0.00043  -0.00173  -0.00133  -0.00105  -0.00644
  42        9D 0        0.00685   0.00105  -0.00419   0.00407   0.00012
  43        9D+1       -0.00197  -0.00104  -0.00032   0.00045   0.00309
  44        9D-1       -0.01274  -0.00960  -0.00514  -0.00089   0.00044
  45        9D+2        0.00429  -0.00281  -0.00455   0.00586   0.00083
  46        9D-2       -0.00146  -0.00101   0.00075  -0.00603  -0.01313
  47 3   F  1S          0.20915   0.19856  -0.59274  -0.11954  -0.19155
  48        2S          0.03411  -0.11240  -0.01208  -0.02943  -0.00439
  49        3S          0.08346  -0.14008  -0.00381  -0.00786  -0.02282
  50        4S         -0.00038  -0.04427   0.08304  -0.02175  -0.04239
  51        5PX        -0.03981   0.08683   0.16991  -0.31888   0.14275
  52        5PY         0.02804   0.13201  -0.04201   0.10037   0.13516
  53        5PZ        -0.32971   0.02266   0.09673  -0.21827  -0.07353
  54        6PX        -0.01963   0.05379   0.10778  -0.20120   0.08597
  55        6PY         0.04727   0.07628  -0.03151   0.07120   0.06982
  56        6PZ        -0.18191   0.00392   0.05253  -0.12560  -0.05182
  57        7PX        -0.00094   0.00906   0.02576  -0.03818   0.01183
  58        7PY         0.01624   0.01396   0.01391   0.01124   0.00894
  59        7PZ        -0.03738  -0.01128   0.00473  -0.02004  -0.01545
  60        8D 0       -0.00388   0.00123   0.00341  -0.00380  -0.00193
  61        8D+1       -0.00155   0.00144   0.00237  -0.00437   0.00157
  62        8D-1       -0.00543   0.00168   0.00177  -0.00263   0.00089
  63        8D+2        0.00101  -0.00074   0.00068  -0.00127  -0.00023
  64        8D-2       -0.00085   0.00136   0.00190  -0.00309   0.00225
  65        9D 0       -0.00810  -0.00167   0.00219  -0.00544   0.00116
  66        9D+1       -0.00049   0.00185   0.00449  -0.00818   0.00311
  67        9D-1        0.00109   0.00029  -0.00214  -0.00143  -0.00134
  68        9D+2       -0.00242   0.00053   0.00311  -0.00191   0.00054
  69        9D-2        0.00023   0.00130   0.00302  -0.00696   0.00214
  70 4   F  1S          0.00420   0.05271   0.01393  -0.00889   0.23298
  71        2S          0.03030  -0.09951  -0.08972   0.03358   0.02767
  72        3S         -0.01372  -0.04948  -0.12530   0.01685   0.03236
  73        4S          0.00163   0.00252  -0.01487  -0.01403  -0.00807
  74        5PX         0.02173   0.17346  -0.06165  -0.17792  -0.07331
  75        5PY         0.14832  -0.30000   0.18516   0.15376  -0.05863
  76        5PZ        -0.18873   0.02099   0.00665  -0.01730  -0.16372
  77        6PX        -0.00214   0.13093  -0.05149  -0.12000  -0.04418
  78        6PY         0.05647  -0.13858   0.09501   0.08031  -0.02684
  79        6PZ        -0.11316   0.00617   0.00646  -0.00736  -0.10623
  80        7PX         0.00799   0.00757  -0.01562  -0.01262  -0.00953
  81        7PY         0.01640  -0.03264   0.01420   0.01296  -0.01292
  82        7PZ        -0.01863   0.00331   0.00148  -0.00139  -0.01659
  83        8D 0       -0.00243   0.00406  -0.00159  -0.00137   0.00127
  84        8D+1       -0.00118   0.00032  -0.00006   0.00019  -0.00077
  85        8D-1       -0.00331   0.00179  -0.00048  -0.00079  -0.00180
  86        8D+2       -0.00328   0.00706  -0.00338  -0.00358   0.00090
  87        8D-2        0.00301  -0.00242   0.00074  -0.00037  -0.00163
  88        9D 0        0.00579  -0.00707   0.00087   0.00218  -0.00133
  89        9D+1       -0.00115  -0.00268   0.00225  -0.00056   0.00136
  90        9D-1       -0.00157  -0.00243   0.00119  -0.00010  -0.00415
  91        9D+2        0.00317  -0.00084   0.00142  -0.00218  -0.00126
  92        9D-2       -0.00686   0.01331  -0.00409  -0.00847  -0.00188
  93 5   F  1S         -0.12481  -0.06878   0.14009   0.10941  -0.27485
  94        2S         -0.07690  -0.00491   0.07120   0.05598  -0.07038
  95        3S         -0.10338  -0.04192   0.05870   0.04683  -0.08237
  96        4S          0.00847  -0.01158   0.04347   0.00505  -0.05054
  97        5PX         0.03886   0.08003  -0.13083   0.07009  -0.22230
  98        5PY        -0.27297  -0.23167  -0.27191  -0.06113   0.21777
  99        5PZ        -0.15488  -0.23518  -0.16378   0.05032  -0.01685
 100        6PX         0.02237   0.04778  -0.08401   0.04409  -0.14588
 101        6PY        -0.17698  -0.15538  -0.17313  -0.03798   0.12434
 102        6PZ        -0.07841  -0.12138  -0.09348   0.03708  -0.00394
 103        7PX         0.00488   0.00756  -0.01173   0.00659  -0.02753
 104        7PY        -0.04174  -0.03009  -0.01125  -0.01327   0.02161
 105        7PZ        -0.01914  -0.01617  -0.01523  -0.00096   0.00732
 106        8D 0        0.00213   0.00638   0.00570  -0.00142  -0.00087
 107        8D+1       -0.00114  -0.00253   0.00092  -0.00047   0.00242
 108        8D-1        0.00180   0.00133   0.00330   0.00058  -0.00277
 109        8D+2        0.00108   0.00103   0.00121   0.00069  -0.00077
 110        8D-2       -0.00008   0.00023  -0.00103   0.00034  -0.00026
 111        9D 0        0.00020   0.00504   0.00653  -0.00359   0.00187
 112        9D+1       -0.00104  -0.00245   0.00309  -0.00188   0.00774
 113        9D-1        0.00668   0.00765   0.00732   0.00081   0.00127
 114        9D+2       -0.00001   0.00235   0.00193  -0.00025  -0.00172
 115        9D-2        0.00056  -0.00017  -0.00205   0.00075  -0.00269
 116 6   H  1S          0.14037  -0.18683   0.08611   0.06251  -0.03980
 117        2S         -0.00886   0.01759   0.01158   0.00594   0.01948
 118        3S         -0.00326   0.00446   0.00345  -0.00219   0.00398
 119        4PX        -0.01118   0.02309  -0.00925  -0.01250  -0.00008
 120        4PY        -0.02034   0.02459  -0.00625  -0.00627   0.00482
 121        4PZ        -0.00350  -0.00437   0.00221   0.00122  -0.00757
 122        5PX         0.00131   0.00423   0.00376  -0.01005  -0.00889
 123        5PY         0.00883  -0.01617   0.00231   0.00578  -0.00617
 124        5PZ        -0.00804   0.00131   0.00133  -0.00129  -0.00474
                          16        17        18        19        20
     Eigenvalues --     2.00000   2.00000   2.00000   2.00000   2.00000
   1 1   B  1S          0.00672   0.39432   0.04793  -0.04751  -0.23725
   2        2S          0.01550  -0.08777  -0.03762   0.10372  -0.05674
   3        3S          0.03203   0.07423   0.05754  -0.18672   0.09075
   4        4S          0.00820   0.00358  -0.01093  -0.00948   0.00382
   5        5PX        -0.11803   0.01431   0.18144   0.00213  -0.02854
   6        5PY        -0.09873   0.09518  -0.06425   0.07897   0.12772
   7        5PZ         0.01083   0.04170  -0.02896   0.03466  -0.01639
   8        6PX         0.01638   0.00015  -0.01237  -0.01234  -0.01638
   9        6PY         0.04110  -0.01756   0.00882  -0.05167  -0.09986
  10        6PZ         0.00105  -0.00869   0.00494   0.00038   0.00899
  11        7PX         0.00638  -0.00018  -0.01356   0.00172   0.00192
  12        7PY        -0.00096   0.00266  -0.00077   0.00004   0.00119
  13        7PZ         0.00105   0.00009  -0.00057   0.00100  -0.00013
  14        8D 0        0.03061  -0.03371   0.00038  -0.00387  -0.02339
  15        8D+1       -0.00857  -0.00510   0.00479  -0.00183  -0.00607
  16        8D-1        0.01622  -0.02973   0.01371  -0.01757  -0.01407
  17        8D+2        0.01859  -0.01609  -0.00253  -0.00531  -0.00803
  18        8D-2       -0.00051  -0.00313  -0.00423   0.00670   0.00878
  19        9D 0       -0.02548   0.01509   0.00760   0.01264   0.04725
  20        9D+1       -0.00330   0.00170  -0.00222   0.00409   0.00257
  21        9D-1       -0.01794   0.01734  -0.00777   0.01984   0.02878
  22        9D+2       -0.00411  -0.00039  -0.01718   0.01921   0.02039
  23        9D-2        0.00380  -0.00024   0.00759  -0.01235  -0.01148
  24 2   F  1S         -0.07095  -0.59539   0.08298  -0.40411   0.09683
  25        2S         -0.14380  -0.05560  -0.03186   0.30394   0.14878
  26        3S         -0.11718  -0.07754  -0.03210   0.33135   0.12025
  27        4S         -0.06705  -0.01513  -0.03097   0.14385   0.11653
  28        5PX         0.00346  -0.14239   0.17576   0.02665   0.00986
  29        5PY         0.08893  -0.00833   0.01410  -0.06325  -0.01988
  30        5PZ         0.00266   0.08341  -0.06600   0.08515   0.01062
  31        6PX        -0.00252  -0.08657   0.11017   0.01974   0.01271
  32        6PY         0.03279   0.02116   0.00427  -0.03617   0.01440
  33        6PZ         0.00848   0.04958  -0.04442   0.05643   0.00162
  34        7PX         0.00454  -0.02153   0.01898   0.00204  -0.00478
  35        7PY         0.01447   0.00484   0.00553  -0.02449  -0.01046
  36        7PZ         0.00291   0.00369  -0.00643   0.00989   0.00191
  37        8D 0        0.00221  -0.00021   0.00084  -0.00251  -0.00166
  38        8D+1       -0.00013  -0.00068   0.00127  -0.00054  -0.00033
  39        8D-1        0.00188  -0.00150   0.00132  -0.00345  -0.00127
  40        8D+2        0.00367   0.00099  -0.00013  -0.00496  -0.00183
  41        8D-2       -0.00001   0.00145  -0.00482   0.00164   0.00099
  42        9D 0       -0.00122   0.00595  -0.00144  -0.00156   0.00445
  43        9D+1       -0.00045  -0.00132   0.00238  -0.00079  -0.00009
  44        9D-1       -0.00132  -0.00145   0.00399  -0.00672   0.00165
  45        9D+2        0.00129   0.00473  -0.00033  -0.00525   0.00273
  46        9D-2        0.00106   0.00357  -0.00810   0.00068   0.00033
  47 3   F  1S          0.15321  -0.25922   0.32409  -0.01244   0.13937
  48        2S          0.03901  -0.10939  -0.01727   0.15388  -0.20359
  49        3S          0.00555  -0.07309  -0.04712   0.20119  -0.20432
  50        4S          0.03112  -0.04834  -0.01529   0.02870  -0.11868
  51        5PX        -0.06347   0.02740   0.25409  -0.05401  -0.07259
  52        5PY         0.10146  -0.18175  -0.09117   0.07908   0.04414
  53        5PZ         0.01501  -0.10228   0.05184  -0.08389  -0.08177
  54        6PX        -0.04342   0.02223   0.15748  -0.02964  -0.04351
  55        6PY         0.04514  -0.09256  -0.06683   0.07019   0.03891
  56        6PZ        -0.00419  -0.05021   0.02315  -0.03389  -0.04599
  57        7PX        -0.00730   0.00170   0.02903  -0.00537  -0.01454
  58        7PY         0.01883  -0.02281  -0.01326   0.01069  -0.01786
  59        7PZ        -0.00708  -0.00701   0.00235   0.00076  -0.00752
  60        8D 0        0.00095  -0.00142   0.00061  -0.00088  -0.00306
  61        8D+1       -0.00135  -0.00056   0.00454  -0.00064  -0.00205
  62        8D-1        0.00291  -0.00633  -0.00093   0.00134  -0.00332
  63        8D+2       -0.00139   0.00302   0.00192  -0.00175   0.00022
  64        8D-2       -0.00084  -0.00087   0.00357  -0.00017  -0.00138
  65        9D 0        0.00203  -0.00469   0.00077  -0.00164  -0.00622
  66        9D+1       -0.00304   0.00055   0.00686   0.00059  -0.00273
  67        9D-1       -0.00218  -0.00360  -0.00495   0.00971  -0.00017
  68        9D+2        0.00043   0.00161   0.00487  -0.00463  -0.00290
  69        9D-2       -0.00365   0.00121   0.00596   0.00092  -0.00084
  70 4   F  1S         -0.00206   0.24708   0.33705   0.42628   0.07273
  71        2S          0.13545  -0.05614  -0.03568  -0.02214  -0.28338
  72        3S          0.15825  -0.05269  -0.07997  -0.04492  -0.27258
  73        4S          0.02983  -0.00785  -0.00259  -0.02743  -0.07646
  74        5PX        -0.00403  -0.04656  -0.05307   0.02359  -0.00241
  75        5PY        -0.10102  -0.01623   0.14041   0.00491  -0.02842
  76        5PZ        -0.07864  -0.03417  -0.00248  -0.03443  -0.05787
  77        6PX         0.00441  -0.02084  -0.04979   0.00850   0.01756
  78        6PY        -0.05687   0.00068   0.06830  -0.00152   0.01018
  79        6PZ        -0.05152  -0.02295   0.00128  -0.02075  -0.04078
  80        7PX         0.00385  -0.00538  -0.01744   0.00530   0.00283
  81        7PY        -0.00526  -0.00207   0.00886  -0.00178  -0.01657
  82        7PZ        -0.00993  -0.00234  -0.00046  -0.00261  -0.00394
  83        8D 0        0.00047   0.00089  -0.00143   0.00044   0.00248
  84        8D+1       -0.00057   0.00007  -0.00004  -0.00020   0.00011
  85        8D-1       -0.00095  -0.00012  -0.00050  -0.00037   0.00028
  86        8D+2        0.00096   0.00093  -0.00254  -0.00031   0.00304
  87        8D-2       -0.00014  -0.00161   0.00067   0.00046  -0.00305
  88        9D 0        0.00163  -0.00042   0.00001  -0.00121  -0.00335
  89        9D+1        0.00053  -0.00093   0.00104  -0.00033  -0.00092
  90        9D-1       -0.00171  -0.00128   0.00088  -0.00063  -0.00360
  91        9D+2       -0.00064  -0.00390   0.00361   0.00280  -0.00907
  92        9D-2        0.00134   0.00301  -0.00521  -0.00272   0.00612
  93 5   F  1S          0.68626   0.08851   0.40668   0.06287   0.34301
  94        2S          0.00415  -0.09018  -0.03051   0.13825  -0.12722
  95        3S         -0.04597  -0.09970  -0.03778   0.15091  -0.13516
  96        4S          0.00548  -0.02551  -0.02457   0.04543  -0.08641
  97        5PX        -0.27187   0.00485   0.27171   0.01276  -0.12020
  98        5PY        -0.02028  -0.10761  -0.02531   0.03889   0.10844
  99        5PZ        -0.12644   0.06120   0.09644  -0.07962   0.06954
 100        6PX        -0.17612   0.00463   0.17102   0.00978  -0.07397
 101        6PY        -0.02573  -0.06118  -0.01519   0.02821   0.07625
 102        6PZ        -0.06091   0.04257   0.05555  -0.05352   0.03825
 103        7PX        -0.03047  -0.00186   0.03236   0.00129  -0.01726
 104        7PY         0.00774  -0.02329   0.00185  -0.00560  -0.00921
 105        7PZ        -0.00796   0.00394   0.01422  -0.01912   0.01209
 106        8D 0        0.00356  -0.00270  -0.00289   0.00333  -0.00397
 107        8D+1        0.00440   0.00026  -0.00534  -0.00079   0.00272
 108        8D-1       -0.00053   0.00203   0.00231  -0.00306  -0.00070
 109        8D+2       -0.00015   0.00028   0.00093  -0.00066  -0.00076
 110        8D-2       -0.00141  -0.00039   0.00150   0.00040  -0.00056
 111        9D 0        0.00374  -0.00833  -0.00383   0.00520  -0.00512
 112        9D+1        0.01059   0.00017  -0.00964  -0.00217   0.00418
 113        9D-1        0.00593   0.00057   0.00335  -0.00645  -0.00633
 114        9D+2       -0.00056  -0.00078   0.00280  -0.00076  -0.00280
 115        9D-2       -0.00428   0.00126   0.00256   0.00121   0.00029
 116 6   H  1S         -0.02628  -0.04333   0.07383   0.00818  -0.10181
 117        2S         -0.04103   0.01160   0.02657   0.02680   0.07364
 118        3S         -0.00654   0.00048   0.01184   0.00071   0.00004
 119        4PX         0.00057   0.00248  -0.00798   0.00089   0.01117
 120        4PY        -0.00080   0.00808  -0.00732  -0.00165   0.02187
 121        4PZ        -0.00358  -0.00257   0.00167  -0.00104  -0.00556
 122        5PX         0.00929  -0.00503  -0.00597  -0.00782  -0.01653
 123        5PY         0.00437  -0.00083  -0.00184  -0.00791  -0.01080
 124        5PZ        -0.00328  -0.00191   0.00146  -0.00054  -0.00105
                          21        22        23        24        25
     Eigenvalues --     2.00000   0.00000   0.00000   0.00000   0.00000
   1 1   B  1S         -0.11543   0.02860  -0.04313  -0.10910   0.13926
   2        2S         -0.04395   0.23473  -0.15523  -0.50698   0.91089
   3        3S          0.03996   1.27906  -0.54374  20.78599  -0.04342
   4        4S          0.00397  -0.75028   0.59817   0.97992   0.84505
   5        5PX        -0.08316  -0.20280  -0.18553   0.03425  -0.30071
   6        5PY        -0.00292  -0.50171   0.25714  -0.06958  -0.65205
   7        5PZ        -0.00882  -0.06736   0.05451  -0.01651  -0.34996
   8        6PX         0.01247  -1.61683   4.70950  -1.45833   1.57096
   9        6PY         0.03381  -8.70380   9.28869   0.35969   0.19413
  10        6PZ        -0.00355   1.18450   6.44932  -0.38094  -4.50276
  11        7PX         0.00418  -0.36737   0.47013  -0.00318   0.52462
  12        7PY         0.00070   0.00413  -0.36632  -0.26406  -0.59387
  13        7PZ        -0.00017  -0.29709  -0.25882  -0.01799   0.13354
  14        8D 0       -0.00381  -0.00900   0.50691   0.71829  -0.30800
  15        8D+1        0.00202  -0.06608  -0.03620  -0.03032   0.06799
  16        8D-1       -0.00609   0.19133   0.10735   0.16657   0.85199
  17        8D+2       -0.00229  -0.11650   0.49420  -0.75313  -0.25424
  18        8D-2       -0.00528  -0.01936  -0.03734   0.28753   0.01732
  19        9D 0       -0.01324   1.98810  -1.93776   0.51548  -0.40988
  20        9D+1       -0.00122   0.35798  -0.89530  -0.06105   0.25232
  21        9D-1       -0.00906   1.80555  -4.41192  -0.50635   0.06633
  22        9D+2       -0.00350   1.40088   0.28244  -1.75613  -0.62930
  23        9D-2        0.00376  -0.07722   0.59636   0.55292   0.31777
  24 2   F  1S          0.41827   0.00339  -0.01080   0.02347  -0.00991
  25        2S         -0.08651   0.25311   0.46585   0.22426  -0.38228
  26        3S         -0.10611  -0.56336  -0.44600  -0.98613   0.90284
  27        4S         -0.06351  13.36790 -10.71149  -8.02439  -3.88589
  28        5PX        -0.18444   0.01373   0.02204  -0.06680   0.02083
  29        5PY         0.01780   0.16216  -0.01555  -0.08506   0.16352
  30        5PZ        -0.07538   0.13765   0.07085  -0.02552   0.02181
  31        6PX        -0.11856  -0.01038  -0.29570   0.33514   0.07109
  32        6PY         0.01280  -0.66005   0.22970   1.06304  -0.34038
  33        6PZ        -0.04785   0.02806  -0.11790  -0.19817  -0.16548
  34        7PX        -0.02056  -0.98722  -0.25281   0.39801  -0.86430
  35        7PY         0.01091  -2.77486   2.69928   2.13664   1.42034
  36        7PZ        -0.01011   0.28202   0.83150  -0.17710  -0.15892
  37        8D 0        0.00011   0.01030  -0.06537   0.01153   0.01404
  38        8D+1       -0.00038   0.05190  -0.00992   0.00170  -0.00676
  39        8D-1        0.00170   0.14758  -0.05255   0.01586  -0.05701
  40        8D+2        0.00243  -0.02943   0.02610   0.01321  -0.01370
  41        8D-2        0.00264  -0.00604  -0.05484  -0.03594  -0.00162
  42        9D 0        0.00094  -0.22804   0.09998  -0.04196  -0.02938
  43        9D+1       -0.00131   0.10406  -0.05755   0.01570  -0.00783
  44        9D-1        0.00276   0.01764  -0.14545   0.02414   0.17276
  45        9D+2        0.00183  -0.06918  -0.08133   0.17282   0.00854
  46        9D-2        0.00693  -0.06672   0.10384  -0.05993   0.10856
  47 3   F  1S         -0.03466   0.01098   0.00209   0.03648   0.01462
  48        2S         -0.01313   0.38164  -0.00342   0.24835   0.04687
  49        3S         -0.01413  -0.96567   0.00892  -1.33327  -0.57605
  50        4S          0.01625  -6.77291  17.49133  -6.93197  -4.08346
  51        5PX        -0.09250   0.12230   0.11128  -0.05631   0.00415
  52        5PY        -0.06548  -0.02740   0.07162   0.14339   0.05089
  53        5PZ         0.03263   0.16082  -0.19759   0.14282   0.20932
  54        6PX        -0.05819  -0.23769  -0.18646  -0.10930  -0.06245
  55        6PY        -0.04341  -0.34815  -0.12213  -0.95082  -0.61845
  56        6PZ         0.01944  -0.76389   0.91427  -1.00670  -0.98245
  57        7PX        -0.01030   0.17732   0.17640  -0.30821  -0.82221
  58        7PY        -0.00424  -1.18090   2.96844  -1.33274   0.00041
  59        7PZ         0.00281  -0.36918   2.31742  -1.75405  -0.69981
  60        8D 0        0.00073  -0.01495  -0.23939   0.03473  -0.05916
  61        8D+1       -0.00157   0.02547   0.08137   0.02134   0.07303
  62        8D-1       -0.00049   0.03061  -0.00745   0.04210   0.01007
  63        8D+2        0.00032   0.03018  -0.09851  -0.00983   0.05981
  64        8D-2       -0.00169  -0.09358   0.07307   0.06410  -0.03578
  65        9D 0        0.00173  -0.20140   0.27177  -0.07209  -0.31865
  66        9D+1       -0.00332   0.06880  -0.01807   0.01674  -0.19248
  67        9D-1       -0.00245  -0.08260  -0.02039  -0.09763  -0.43284
  68        9D+2        0.00062  -0.08895   0.15613   0.22432  -0.13548
  69        9D-2       -0.00307   0.05301  -0.11142  -0.08765  -0.10713
  70 4   F  1S          0.76472  -0.01376  -0.01939  -0.01640   0.04427
  71        2S          0.00721  -0.60281  -0.18956   0.04048   0.52872
  72        3S         -0.00044   1.49585   0.88165   0.23118  -1.98718
  73        4S          0.00449  -0.70283  -0.66872   6.19754  -1.63470
  74        5PX         0.04781   0.02770  -0.15824   0.04415  -0.04792
  75        5PY        -0.07068  -0.02662  -0.00211   0.02592  -0.16488
  76        5PZ         0.04685  -0.12168   0.00975  -0.04752  -0.04796
  77        6PX         0.04096   0.15835   0.50608   0.33090  -0.28463
  78        6PY        -0.03450   0.45751   0.53726   0.62157  -0.99942
  79        6PZ         0.02826  -0.05187  -0.10526  -0.09612   0.20882
  80        7PX         0.00371   0.24872   1.06333  -0.61195  -1.21637
  81        7PY        -0.00624  -0.49652  -0.64273   1.42127  -0.37820
  82        7PZ         0.00487   0.70320   0.09700  -0.17478   0.22067
  83        8D 0        0.00056  -0.08638  -0.14958  -0.05684   0.06536
  84        8D+1        0.00026   0.08036   0.03540   0.02013   0.04443
  85        8D-1        0.00087  -0.02614   0.01614   0.00666   0.04945
  86        8D+2        0.00168  -0.00954   0.10256   0.00404   0.00725
  87        8D-2       -0.00037   0.13837   0.02010  -0.02835   0.03264
  88        9D 0        0.00073   0.06563   0.14132  -0.07772   0.21554
  89        9D+1       -0.00068  -0.15790   0.00875   0.00246   0.04787
  90        9D-1        0.00058   0.01514   0.04292  -0.00076   0.06605
  91        9D+2       -0.00248  -0.00985  -0.28347  -0.01241   0.28759
  92        9D-2        0.00500   0.06054   0.29308   0.04960  -0.29296
  93 5   F  1S         -0.16158   0.01498  -0.00242   0.03070   0.00246
  94        2S          0.01004  -0.35764  -0.27970   0.27665  -0.11192
  95        3S          0.01741   0.53277   0.39590  -1.28074   0.47008
  96        4S          0.00946  -6.31321  -4.67933  -6.82557   5.30927
  97        5PX        -0.05649  -0.08368   0.05931  -0.11153  -0.11756
  98        5PY        -0.03995   0.10458   0.06464   0.07026   0.03465
  99        5PZ         0.02700  -0.21228   0.10596  -0.16308  -0.11978
 100        6PX        -0.03461   0.07006  -0.27900  -0.05433   0.27598
 101        6PY        -0.02316  -0.05018  -0.45868  -0.42111  -0.14628
 102        6PZ         0.01653   0.39409   0.04262   1.24489  -0.16887
 103        7PX        -0.00620  -0.23245  -0.35532  -0.25539  -0.74360
 104        7PY         0.00124  -1.23613   1.01380  -0.16768   1.50872
 105        7PZ         0.00388   2.17184   1.54389   2.02516  -1.57482
 106        8D 0       -0.00038   0.08986  -0.11274  -0.00567   0.02509
 107        8D+1        0.00180  -0.01122  -0.11343  -0.05314  -0.06873
 108        8D-1        0.00104   0.14144  -0.08965  -0.01579  -0.01638
 109        8D+2        0.00021  -0.03098   0.00999   0.03097  -0.03283
 110        8D-2       -0.00075   0.00470  -0.00708   0.01495  -0.03168
 111        9D 0       -0.00080  -0.27102   0.16370  -0.16407  -0.13554
 112        9D+1        0.00288  -0.07900   0.14965   0.00833   0.09031
 113        9D-1        0.00058   0.03773   0.31119   0.05444  -0.03732
 114        9D+2       -0.00096   0.04944  -0.07765   0.14502  -0.09138
 115        9D-2       -0.00065  -0.00470  -0.05935  -0.06747  -0.05464
 116 6   H  1S         -0.04379  -0.40324  -0.68761  -0.31791   1.01833
 117        2S         -0.00946  -0.00190  -0.62909  -4.61292   3.08453
 118        3S         -0.00304   0.50236  -1.00734  -0.36950  -0.16118
 119        4PX         0.00554   0.08498   0.09810  -0.00173  -0.35587
 120        4PY         0.00593   0.24357   0.07619   0.01586  -0.51736
 121        4PZ         0.00060  -0.05247  -0.02006   0.02331   0.12746
 122        5PX         0.00700   0.06447   0.49530   0.52690  -0.28245
 123        5PY        -0.00110   0.51420   0.69342   1.14755  -0.63376
 124        5PZ         0.00135  -0.31122  -0.15524  -0.13736  -0.03693
                          26        27        28        29        30
     Eigenvalues --     0.00000   0.00000   0.00000   0.00000   0.00000
   1 1   B  1S         -0.01983   0.02838   0.08797  -0.05742  -0.01400
   2        2S          0.14134   0.25703   0.11864  -0.81722   0.28404
   3        3S          1.31457  -0.01758  -4.13236  -4.58473  -1.97750
   4        4S         -0.09985  -0.07873  -0.34878   0.73536   0.62248
   5        5PX         0.37854   0.13487   0.03527   0.16563  -0.17136
   6        5PY         0.83332   0.45692   0.69214  -0.13364  -0.50590
   7        5PZ        -0.93922  -0.39816   0.37519  -0.04798  -0.18982
   8        6PX         0.24924  -0.94970  -0.75893  -0.12166   0.32099
   9        6PY         0.78179  -1.75576  -8.13314   3.05822  -5.12058
  10        6PZ         1.75770  -0.03354   0.92240   4.17298 -17.73508
  11        7PX         0.55217  -0.48129   0.29660   0.16209   0.34269
  12        7PY         0.13736  -0.10704   0.12339  -0.29211   0.05518
  13        7PZ         0.42977   0.16573   0.15655  -0.18102   0.62853
  14        8D 0        0.51916  -0.12601  -0.13497  -0.92767   0.32298
  15        8D+1        0.05138   0.05494  -0.01709   0.05036   0.22340
  16        8D-1        0.06267   0.48877  -0.11619  -0.66467   0.95759
  17        8D+2       -0.27304  -0.14740   0.27509  -0.16856   0.31493
  18        8D-2       -0.08696   0.31606  -0.06060   0.02414  -0.06696
  19        9D 0        0.36614   1.08535   2.35836  -0.42842  -2.25771
  20        9D+1        0.02702   0.66788   0.43158  -0.38633   1.42019
  21        9D-1       -0.15738   1.03688   2.02604  -2.20664   6.98909
  22        9D+2        0.03714   0.00338   1.78357  -0.18169  -1.01309
  23        9D-2        0.08021  -0.54737  -0.97937  -0.28289   0.04962
  24 2   F  1S          0.03006   0.01343  -0.01021  -0.01140  -0.01416
  25        2S          0.22964  -0.12286  -0.02010  -0.19477  -0.27646
  26        3S         -0.72313   0.08252   0.36745   0.07738   1.10369
  27        4S         -0.90376   2.26057  12.95816  -2.16267   1.76404
  28        5PX         0.01669   0.01892   0.09184   0.17574  -0.01493
  29        5PY        -0.07600   0.02274   0.08215   0.05442  -0.04195
  30        5PZ        -0.08206   0.30784   0.00578  -0.05327   0.00369
  31        6PX         0.17096  -0.03758  -0.08975  -0.23344  -0.11340
  32        6PY         0.76335   0.13913  -0.41100  -0.21705  -0.42279
  33        6PZ         0.06701  -0.73196  -0.01012   0.13610   0.08110
  34        7PX         0.10019   0.49726  -0.99531   0.96868  -0.04593
  35        7PY         0.15279  -0.11603  -2.46822   0.16533  -0.72898
  36        7PZ        -0.77451  -0.29742   0.06059   0.73347  -2.50711
  37        8D 0        0.03311   0.18643   0.07185   0.04715  -0.02908
  38        8D+1        0.03696  -0.04998  -0.03695   0.01558   0.01140
  39        8D-1        0.03947  -0.31543  -0.05065   0.04182  -0.01218
  40        8D+2       -0.14232  -0.01768   0.08577   0.13573  -0.03591
  41        8D-2        0.04769  -0.09529   0.03578   0.02885  -0.10106
  42        9D 0        0.04370  -0.18675   0.08091   0.00124  -0.13260
  43        9D+1        0.02642  -0.02958   0.05850  -0.00562   0.03569
  44        9D-1        0.07677   0.47364   0.07534  -0.26793   0.13096
  45        9D+2        0.46316   0.33981   0.25903  -0.29558  -0.16593
  46        9D-2       -0.20945   0.08019   0.04818  -0.14051   0.03837
  47 3   F  1S          0.00341  -0.01082  -0.03135  -0.01811   0.03653
  48        2S         -0.02429   0.29486   0.00461  -0.20287   0.05286
  49        3S         -0.12384  -0.62752   0.56385   0.98831  -1.01382
  50        4S          0.85893  -2.55440  -6.00933   8.96959 -23.12262
  51        5PX        -0.13833   0.06223   0.04731   0.08415   0.14309
  52        5PY        -0.04627   0.03750   0.09620   0.05751   0.07501
  53        5PZ         0.02406  -0.19368   0.07336   0.07309  -0.11452
  54        6PX         0.31810  -0.06116   0.07514   0.16228  -0.39588
  55        6PY        -0.34564  -0.20293   0.44120   0.72151  -0.98630
  56        6PZ        -0.01445   0.07250   0.25880   0.21198  -0.62357
  57        7PX        -1.06956  -0.00118  -0.64503   0.25140  -0.69877
  58        7PY         0.00657  -0.35757  -1.69894   1.85843  -2.21207
  59        7PZ         0.20483  -0.08246  -0.56097   1.80128  -4.25174
  60        8D 0       -0.06011  -0.39037   0.07577   0.03087  -0.22315
  61        8D+1        0.08780   0.02628   0.00892   0.06627   0.00775
  62        8D-1       -0.09845   0.06433  -0.08264  -0.02540  -0.00552
  63        8D+2       -0.00920  -0.23447  -0.06806   0.06883   0.01649
  64        8D-2        0.14486   0.08464  -0.01330   0.04027   0.03633
  65        9D 0        0.18332   0.11098   0.10143  -0.34418   0.20411
  66        9D+1       -0.25915  -0.02805   0.00685  -0.13032  -0.16949
  67        9D-1        0.00800  -0.08635   0.07433   0.36869  -0.18420
  68        9D+2        0.07382   0.08823  -0.13632  -0.25920  -0.14712
  69        9D-2       -0.33252   0.05911  -0.01046   0.01409   0.10335
  70 4   F  1S         -0.01481  -0.00337   0.01209   0.00857  -0.01493
  71        2S         -0.24935  -0.03727   0.02631   0.11533  -0.10715
  72        3S          0.83728   0.12445  -0.47275  -0.42635   0.40590
  73        4S          0.37259   1.35564  -2.04804   1.11203  -0.34579
  74        5PX         0.10547  -0.00246   0.15259  -0.23128  -0.10266
  75        5PY        -0.04237   0.03706   0.06762   0.07771   0.08487
  76        5PZ        -0.03192  -0.02852  -0.05327  -0.02210  -0.05997
  77        6PX         0.02015   0.12245  -0.15872   0.34633   0.08124
  78        6PY         0.60415   0.21610   0.10713  -0.29129   0.12579
  79        6PZ        -0.11161  -0.08688  -0.02633   0.01701   0.17855
  80        7PX        -0.52791  -0.42000   0.32264  -0.16631   0.90972
  81        7PY        -0.46342   0.37013  -0.44637  -0.00767   0.38975
  82        7PZ        -0.89799  -0.56769   0.01198  -0.03496   0.29237
  83        8D 0       -0.05373  -0.00030   0.11954   0.01157  -0.13515
  84        8D+1        0.02026  -0.02257   0.04922   0.00054   0.08152
  85        8D-1        0.06058   0.11636   0.03607  -0.03047  -0.02639
  86        8D+2       -0.10294  -0.08413   0.13996  -0.18762  -0.05099
  87        8D-2        0.01600  -0.06022   0.06048  -0.19050  -0.09596
  88        9D 0       -0.02274  -0.10356  -0.24368   0.21929   0.07244
  89        9D+1        0.06619   0.07223   0.00256   0.02505  -0.17882
  90        9D-1       -0.18746  -0.19186  -0.04348   0.15423   0.00781
  91        9D+2        0.07638   0.08898  -0.26516   0.65081   0.02446
  92        9D-2        0.06150   0.09008  -0.18930   0.00636  -0.08680
  93 5   F  1S          0.01087  -0.00595   0.00511  -0.01605   0.01732
  94        2S         -0.47316  -0.05712   0.18779  -0.46107  -0.03547
  95        3S          0.34754   0.26692  -0.37934   1.29894   0.00502
  96        4S         -1.32151  -0.26066  -2.14957  -3.73197  23.60227
  97        5PX        -0.08609   0.13925  -0.10713   0.11146   0.08707
  98        5PY         0.01501  -0.05313   0.15996   0.04101   0.08955
  99        5PZ         0.09546   0.05041   0.01448  -0.13886   0.16657
 100        6PX         0.10057  -0.29587   0.09193  -0.03360   0.01116
 101        6PY        -0.31028   0.00980  -0.05932   0.50646  -0.15390
 102        6PZ        -0.48106  -0.48110  -0.03924  -0.15086  -0.78118
 103        7PX        -0.37267   0.05123  -0.48993  -0.03119   0.30693
 104        7PY         0.20427  -0.46535  -1.36419   0.71500   0.05738
 105        7PZ        -0.08595  -0.28805  -0.33579   0.81705  -5.69834
 106        8D 0       -0.22077   0.18211   0.00261  -0.06478  -0.15452
 107        8D+1       -0.09526   0.17887  -0.02675  -0.07135  -0.04380
 108        8D-1        0.07514   0.37349  -0.03210   0.05213  -0.13189
 109        8D+2       -0.03199   0.06250  -0.15814   0.08809  -0.04482
 110        8D-2        0.09739  -0.06720   0.03223  -0.02038   0.05903
 111        9D 0        0.55152   0.10113   0.03163   0.02133   0.11758
 112        9D+1        0.12467  -0.18410  -0.00672   0.19573   0.12632
 113        9D-1       -0.09366  -0.18798   0.14046  -0.58268   0.21981
 114        9D+2        0.02002   0.09758   0.03995  -0.10178   0.20219
 115        9D-2       -0.08297  -0.03588   0.01911   0.09158  -0.02913
 116 6   H  1S         -0.46150  -0.37327  -0.57442   0.64610  -0.16651
 117        2S         -0.38666  -0.46862   2.28560  -1.34126  -0.60489
 118        3S          0.09171  -0.09358   0.22695  -0.24819  -0.45415
 119        4PX         0.17103  -0.14581   0.18653  -0.51652   0.15750
 120        4PY         0.37837   0.17388  -0.36073  -0.12778  -0.09467
 121        4PZ        -0.12459   0.09837   0.05382  -0.01567   0.01417
 122        5PX         0.33142   0.35220  -0.79695   0.17693  -0.09896
 123        5PY         0.18758   0.13066  -0.46029   0.31207   0.08010
 124        5PZ         0.76532   0.28285   0.09371   0.03420  -0.18487
                          31        32        33        34        35
     Eigenvalues --     0.00000   0.00000   0.00000   0.00000   0.00000
   1 1   B  1S          0.06952   0.04779   0.03998   0.00276   0.06307
   2        2S          0.49255   0.28693   0.41006  -0.24226   0.12127
   3        3S         -0.52554  -0.53037   3.96120  -1.45002  -6.28675
   4        4S         -0.41464   1.34933  -0.06199   0.53998  -0.47336
   5        5PX        -0.17188  -0.15390  -0.27619  -0.05899   0.12466
   6        5PY         0.07045   0.02888   0.35439   0.18156   0.40179
   7        5PZ        -0.72457   0.29964   0.36875  -0.27396  -0.74396
   8        6PX         0.08191   0.62812   0.32389   0.43673  -1.16013
   9        6PY         0.20072   7.43954   1.48971  -0.35224  -2.77803
  10        6PZ         2.65455   4.85381  -1.39811   1.56282  -1.78806
  11        7PX        -0.44055   0.41262  -0.23285   0.24491   0.03239
  12        7PY        -0.61060  -0.29991  -0.12829   0.46159  -0.08573
  13        7PZ         0.03132  -0.34303   0.29180  -0.10071  -0.08556
  14        8D 0        0.79853  -0.25817  -0.22341  -0.09873   0.56327
  15        8D+1        0.19554  -0.32375  -0.24577   0.08905  -0.04811
  16        8D-1       -0.58755  -0.80037  -0.47876  -0.16201   0.29371
  17        8D+2        0.41067  -0.39939  -0.19597   0.01993   0.54619
  18        8D-2       -0.57112  -0.00972   0.17053   0.03540  -0.30369
[...]
                                                                                        XX                                           
                                                                                        XX                                           
 
 ***** Axes restored to original set *****
 -------------------------------------------------------------------
 Center     Atomic                   Forces (Hartrees/Bohr)
 Number     Number              X              Y              Z
 -------------------------------------------------------------------
      1        5          -0.000037817    0.000031951   -0.000009569
      2        9           0.000015929   -0.000030561   -0.000002204
      3        9           0.000011303    0.000009349    0.000007127
      4        9           0.000009228   -0.000018608    0.000016374
      5        9          -0.000001169   -0.000011108    0.000004809
      6        1           0.000002526    0.000018978   -0.000016537
 -------------------------------------------------------------------
 Cartesian Forces:  Max     0.000037817 RMS     0.000017462
 Force constants in Cartesian coordinates: 
                1             2             3             4             5 
      1  0.531681D+00
      2 -0.107973D+00  0.474810D+00
      3  0.154197D+00  0.181916D+00  0.391165D+00
      4 -0.138569D+00  0.125755D+00  0.422090D-01  0.156299D+00
      5  0.129513D+00 -0.242813D+00 -0.622933D-01 -0.165932D+00  0.286303D+00
      6  0.406704D-01 -0.582203D-01 -0.723512D-01 -0.379980D-01  0.866074D-01
      7 -0.873938D-01 -0.653657D-01 -0.737426D-01  0.135412D-01  0.121496D-01
      8 -0.661147D-01 -0.172118D+00 -0.136289D+00  0.433496D-02 -0.311407D-01
      9 -0.756111D-01 -0.138399D+00 -0.212089D+00 -0.179593D-03 -0.287779D-01
     10 -0.102720D-02  0.412453D-02 -0.739706D-02  0.140930D-02 -0.310593D-02
     11  0.401324D-02 -0.676626D-02 -0.414756D-02 -0.313305D-02 -0.333470D-02
     12 -0.735867D-02 -0.426894D-02  0.344685D-02  0.181712D-02  0.552035D-02
     13 -0.303406D+00  0.428878D-01 -0.119471D+00 -0.327143D-01  0.265910D-01
     14  0.416978D-01 -0.596448D-01  0.211112D-01  0.372981D-01 -0.660434D-02
     15 -0.116807D+00  0.211192D-01 -0.108579D+00 -0.389516D-02 -0.731326D-03
     16 -0.128533D-02  0.571714D-03  0.420498D-02  0.333579D-04  0.784267D-03
     17 -0.113628D-02  0.653225D-02 -0.297304D-03  0.167713D-02 -0.241001D-02
     18  0.490943D-02 -0.214662D-02 -0.159290D-02 -0.195333D-02 -0.325199D-03
                6             7             8             9            10 
      6  0.642744D-01
      7  0.624197D-02  0.936700D-01
      8 -0.366758D-01  0.696687D-01  0.192303D+00
      9 -0.620641D-02  0.102503D+00  0.182570D+00  0.235918D+00
     10  0.180465D-02  0.542566D-03 -0.131324D-03  0.293221D-02  0.239254D+00
     11  0.554680D-02  0.123844D-04  0.193149D-02  0.662615D-03 -0.240974D+00
     12 -0.233810D-02  0.231212D-02  0.106679D-02 -0.424587D-02 -0.155546D+00
     13 -0.913179D-02 -0.201102D-01 -0.730509D-02 -0.285608D-01 -0.274867D-02
     14  0.403598D-02 -0.161779D-01  0.103117D-01 -0.164334D-01 -0.195103D-02
     15  0.155138D-01 -0.368358D-01 -0.113807D-01 -0.135316D-01  0.313328D-02
     16 -0.158724D-02 -0.249779D-03 -0.452540D-03 -0.108390D-02 -0.237430D+00
     17 -0.129404D-02 -0.286967D-03 -0.128820D-02  0.378283D-03  0.242038D+00
     18  0.110747D-02 -0.478826D-03  0.709047D-03  0.154982D-03  0.155073D+00
               11            12            13            14            15 
     11  0.257591D+00
     12  0.154007D+00  0.106213D+00
     13 -0.137239D-02  0.346187D-02  0.358647D+00
     14  0.119504D-02  0.971314D-03 -0.606158D-01  0.560001D-01
     15  0.599700D-03 -0.240720D-03  0.154889D+00 -0.101113D-01  0.107294D+00
     16  0.241454D+00  0.155313D+00  0.331986D-03 -0.251165D-03 -0.484417D-03
     17 -0.250617D+00 -0.157297D+00 -0.185547D-03 -0.125771D-02  0.504444D-03
     18 -0.156669D+00 -0.102835D+00 -0.118721D-02  0.426205D-03 -0.457307D-03
               16            17            18 
     16  0.238600D+00
     17 -0.242106D+00  0.249040D+00
     18 -0.156363D+00  0.158005D+00  0.103623D+00
 FormGI is forming the generalized inverse of G from B-inverse, IUseBI=4.
 Force constants in internal coordinates: 
                1             2             3             4             5 
      1  0.423610D+00
      2  0.387634D-01  0.441469D+00
      3  0.548766D-02  0.193260D-02  0.682799D-02
      4  0.387507D-01  0.387948D-01  0.193649D-02  0.441485D+00
      5 -0.175780D-02 -0.486584D-03  0.172789D-02 -0.483343D-03  0.587992D+00
      6  0.137218D-01  0.137573D-01 -0.112001D-02 -0.259011D-01  0.283275D-03
      7  0.169072D-03 -0.599453D-02  0.155426D-01 -0.597873D-02 -0.372363D-02
      8  0.136988D-01 -0.259020D-01 -0.110395D-02  0.137457D-01  0.278012D-03
      9 -0.404181D-02 -0.551600D-02  0.107451D-01 -0.491264D-02 -0.232719D-02
     10 -0.265598D-01  0.135220D-01 -0.105985D-02  0.135328D-01  0.179629D-03
     11 -0.403146D-02 -0.492667D-02  0.108123D-01 -0.550921D-02 -0.231841D-02
     12  0.498824D-02 -0.181075D-02 -0.467270D-03 -0.182015D-02  0.307135D-02
     13 -0.155900D-04 -0.128464D-01 -0.766566D-05  0.128615D-01  0.602886D-05
     14  0.138310D-01  0.788790D-03 -0.657033D-03 -0.132640D-01  0.171326D-03
     15 -0.138414D-01  0.132612D-01  0.668816D-03 -0.778928D-03 -0.163547D-03
                6             7             8             9            10 
      6  0.700862D-01
      7 -0.110120D-01  0.155140D+00
      8 -0.338089D-01 -0.109292D-01  0.700762D-01
      9 -0.754515D-02  0.110568D+00 -0.118036D-01  0.137006D+00
     10 -0.333914D-01 -0.113596D-01 -0.333812D-01 -0.124194D-01  0.695798D-01
     11 -0.118016D-01  0.110531D+00 -0.752458D-02  0.111032D+00 -0.124525D-01
     12 -0.815876D-03 -0.877573D-02 -0.791944D-03  0.313834D-02  0.180662D-02
     13 -0.352105D-01 -0.104628D-03  0.352282D-01 -0.135676D-02  0.157905D-04
     14  0.346984D-01 -0.648899D-02  0.110007D-02 -0.684150D-02 -0.337002D-01
     15 -0.111536D-02  0.661555D-02 -0.346972D-01  0.817384D-02  0.336829D-01
               11            12            13            14            15 
     11  0.137165D+00
     12  0.318850D-02  0.847535D-02
     13  0.111859D-02  0.242093D-04  0.240338D-01
     14 -0.808139D-02 -0.125656D-02 -0.112327D-01  0.233972D-01
     15  0.694410D-02  0.126747D-02 -0.112420D-01 -0.122351D-01  0.234001D-01
 Leave Link  716 at Sat Aug  1 14:27:14 2020, MaxMem=   524288000 cpu:               0.2 elap:               0.0
 (Enter /home/ubuntu/g16/l103.exe)

 GradGradGradGradGradGradGradGradGradGradGradGradGradGradGradGradGradGrad
 Berny optimization.
 Red2BG is reusing G-inverse.
 Internal  Forces:  Max     0.000042938 RMS     0.000017383
 Search for a local minimum.
 Step number   1 out of a maximum of    2
 All quantities printed in internal units (Hartrees-Bohrs-Radians)
 Second derivative matrix not updated -- analytic derivatives used.
 The second derivative matrix:
                          R1        R2        R3        R4        R5
           R1           0.42361
           R2           0.03876   0.44147
           R3           0.00549   0.00193   0.00683
           R4           0.03875   0.03879   0.00194   0.44148
           R5          -0.00176  -0.00049   0.00173  -0.00048   0.58799
           A1           0.01372   0.01376  -0.00112  -0.02590   0.00028
           A2           0.00017  -0.00599   0.01554  -0.00598  -0.00372
           A3           0.01370  -0.02590  -0.00110   0.01375   0.00028
           A4          -0.00404  -0.00552   0.01075  -0.00491  -0.00233
           A5          -0.02656   0.01352  -0.00106   0.01353   0.00018
           A6          -0.00403  -0.00493   0.01081  -0.00551  -0.00232
           A7           0.00499  -0.00181  -0.00047  -0.00182   0.00307
           D1          -0.00002  -0.01285  -0.00001   0.01286   0.00001
           D2           0.01383   0.00079  -0.00066  -0.01326   0.00017
           D3          -0.01384   0.01326   0.00067  -0.00078  -0.00016
                          A1        A2        A3        A4        A5
           A1           0.07009
           A2          -0.01101   0.15514
           A3          -0.03381  -0.01093   0.07008
           A4          -0.00755   0.11057  -0.01180   0.13701
           A5          -0.03339  -0.01136  -0.03338  -0.01242   0.06958
           A6          -0.01180   0.11053  -0.00752   0.11103  -0.01245
           A7          -0.00082  -0.00878  -0.00079   0.00314   0.00181
           D1          -0.03521  -0.00010   0.03523  -0.00136   0.00002
           D2           0.03470  -0.00649   0.00110  -0.00684  -0.03370
           D3          -0.00112   0.00662  -0.03470   0.00817   0.03368
                          A6        A7        D1        D2        D3
           A6           0.13717
           A7           0.00319   0.00848
           D1           0.00112   0.00002   0.02403
           D2          -0.00808  -0.00126  -0.01123   0.02340
           D3           0.00694   0.00127  -0.01124  -0.01224   0.02340
 ITU=  0
     Eigenvalues ---    0.00045   0.00474   0.00579   0.02584   0.04179
     Eigenvalues ---    0.12950   0.13113   0.36835   0.39865   0.41041
     Eigenvalues ---    0.51497   0.58815
 Angle between quadratic step and forces=  58.83 degrees.
 Linear search not attempted -- first point.
 Iteration  1 RMS(Cart)=  0.00374208 RMS(Int)=  0.00001817
 Iteration  2 RMS(Cart)=  0.00001518 RMS(Int)=  0.00000028
 Iteration  3 RMS(Cart)=  0.00000000 RMS(Int)=  0.00000028
 ITry= 1 IFail=0 DXMaxC= 9.46D-03 DCOld= 1.00D+10 DXMaxT= 3.00D-01 DXLimC= 3.00D+00 Rises=F
 Variable       Old X    -DE/DX   Delta X   Delta X   Delta X     New X
                                 (Linear)    (Quad)   (Total)
    R1        2.52155   0.00003   0.00000  -0.00005  -0.00005   2.52150
    R2        2.50744   0.00001   0.00000   0.00005   0.00005   2.50749
    R3        4.76677   0.00001   0.00000   0.00008   0.00008   4.76685
    R4        2.50743  -0.00000   0.00000   0.00006   0.00006   2.50749
    R5        1.75334  -0.00000   0.00000  -0.00004  -0.00004   1.75329
    A1        2.08965  -0.00000   0.00000   0.00010   0.00010   2.08974
    A2        1.52069   0.00002   0.00000   0.00181   0.00181   1.52250
    A3        2.08980  -0.00000   0.00000  -0.00006  -0.00006   2.08974
    A4        1.63475  -0.00001   0.00000  -0.00165  -0.00165   1.63310
    A5        2.10034   0.00001   0.00000  -0.00004  -0.00004   2.10030
    A6        1.63301   0.00002   0.00000  -0.00011  -0.00011   1.63291
    A7        1.86922   0.00004   0.00000   0.00769   0.00769   1.87691
    D1       -0.00505   0.00000   0.00000   0.00511   0.00511   0.00006
    D2        2.08279  -0.00000   0.00000   0.00532   0.00532   2.08811
    D3       -2.09308   0.00001   0.00000   0.00509   0.00509  -2.08800
         Item               Value     Threshold  Converged?
 Maximum Force            0.000043     0.000450     YES
 RMS     Force            0.000017     0.000300     YES
 Maximum Displacement     0.009460     0.001800     NO 
 RMS     Displacement     0.003747     0.001200     NO 
 Predicted change in Energy=-2.101522D-07
                           ----------------------------
                           ! Non-Optimized Parameters !
                           ! (Angstroms and Degrees)  !
 --------------------------                            --------------------------
 ! Name  Definition              Value          Derivative Info.                !
 --------------------------------------------------------------------------------
 ! R1    R(1,2)                  1.3343         -DE/DX =    0.0                 !
 ! R2    R(1,3)                  1.3269         -DE/DX =    0.0                 !
 ! R3    R(1,4)                  2.5225         -DE/DX =    0.0                 !
 ! R4    R(1,5)                  1.3269         -DE/DX =    0.0                 !
 ! R5    R(4,6)                  0.9278         -DE/DX =    0.0                 !
 ! A1    A(2,1,3)              119.7335         -DE/DX =    0.0                 !
 ! A2    A(2,1,4)               87.2326         -DE/DX =    0.0                 !
 ! A3    A(2,1,5)              119.7335         -DE/DX =    0.0                 !
 ! A4    A(3,1,4)               93.5698         -DE/DX =    0.0                 !
 ! A5    A(3,1,5)              120.3384         -DE/DX =    0.0                 !
 ! A6    A(4,1,5)               93.5587         -DE/DX =    0.0                 !
 ! A7    A(1,4,6)              107.5389         -DE/DX =    0.0                 !
 ! D1    D(2,1,4,6)              0.0033         -DE/DX =    0.0                 !
 ! D2    D(3,1,4,6)            119.6398         -DE/DX =    0.0                 !
 ! D3    D(5,1,4,6)           -119.6333         -DE/DX =    0.0                 !
 --------------------------------------------------------------------------------
 GradGradGradGradGradGradGradGradGradGradGradGradGradGradGradGradGradGrad

 Leave Link  103 at Sat Aug  1 14:27:14 2020, MaxMem=   524288000 cpu:               0.1 elap:               0.0
 (Enter /home/ubuntu/g16/l9999.exe)

 ----------------------------------------------------------------------

 Electric dipole moment (input orientation):
 (Debye = 10**-18 statcoulomb cm , SI units = C m)
                  (au)            (Debye)         (10**-30 SI)
   Tot        0.764149D+00      0.194227D+01      0.647873D+01
   x          0.533339D+00      0.135561D+01      0.452184D+01
   y         -0.323534D+00     -0.822342D+00     -0.274304D+01
   z         -0.441360D+00     -0.112183D+01     -0.374201D+01

 Dipole polarizability, Alpha (input orientation).
 (esu units = cm**3 , SI units = C**2 m**2 J**-1)
 Alpha(0;0):
               (au)            (10**-24 esu)      (10**-40 SI)
   iso        0.216800D+02      0.321264D+01      0.357455D+01
   aniso      0.252275D+01      0.373834D+00      0.415946D+00
   xx         0.221604D+02      0.328383D+01      0.365376D+01
   yx        -0.903382D+00     -0.133867D+00     -0.148948D+00
   yy         0.214709D+02      0.318166D+01      0.354007D+01
   zx        -0.166361D+00     -0.246521D-01     -0.274292D-01
   zy         0.105052D+01      0.155671D+00      0.173207D+00
   zz         0.214087D+02      0.317244D+01      0.352981D+01

 ----------------------------------------------------------------------

 Dipole orientation:
     5          9.33872476         -1.27958246          4.04009817
     9          9.45090306          0.00305510          6.20815236
     9         11.45708990         -2.03324707          2.93023744
     9          8.95295290         -5.23232119          6.67622473
     9          7.12570085         -1.62688923          2.91355455
     1          9.00110765         -4.73738079          8.35756354

 Electric dipole moment (dipole orientation):
 (Debye = 10**-18 statcoulomb cm , SI units = C m)
                  (au)            (Debye)         (10**-30 SI)
   Tot        0.764149D+00      0.194227D+01      0.647873D+01
   x          0.000000D+00      0.000000D+00      0.000000D+00
   y          0.000000D+00      0.000000D+00      0.000000D+00
   z          0.764149D+00      0.194227D+01      0.647873D+01

 Dipole polarizability, Alpha (dipole orientation).
 (esu units = cm**3 , SI units = C**2 m**2 J**-1)
 Alpha(0;0):
               (au)            (10**-24 esu)      (10**-40 SI)
   iso        0.216800D+02      0.321264D+01      0.357455D+01
   aniso      0.252275D+01      0.373834D+00      0.415946D+00
   xx         0.216502D+02      0.320824D+01      0.356964D+01
   yx        -0.116007D+00     -0.171905D-01     -0.191270D-01
   yy         0.204219D+02      0.302621D+01      0.336711D+01
   zx         0.652840D-01      0.967409D-02      0.107639D-01
   zy         0.694638D+00      0.102935D+00      0.114530D+00
   zz         0.229679D+02      0.340348D+01      0.378689D+01

 ----------------------------------------------------------------------
 1\1\GINC-LC06-1-2\Freq\UB3LYP\Aug-CC-pVDZ\B1F4H1\UBUNTU\01-Aug-2020\0\
 \#P Geom=AllCheck Guess=TCheck SCRF=Check GenChk UB3LYP/Aug-CC-pVDZ Fr
 eq\\HBF4_UB3LYP-aug-cc-pVDZ\\0,1\B,5.0348738525,0.620689898,1.92764369
 25\F,5.7495158999,-0.455558381,1.5937959642\F,5.4745073661,1.432836689
 2,2.8804057063\F,6.2592043441,1.8458496963,0.093838404\F,3.8437546734,
 0.816631786,1.3767930269\H,6.8487438639,1.2417703115,-0.2913767939\\Ve
 rsion=ES64L-G16RevA.03\State=1-A\HF=-425.061332\S2=0.\S2-1=0.\S2A=0.\R
 MSD=9.561e-10\RMSF=1.746e-05\ZeroPoint=0.0226508\Thermal=0.029583\Dipo
 le=0.5333394,-0.3235342,-0.4413605\DipoleDeriv=1.8344279,-0.1918991,0.
 2264345,-0.1842039,1.6972732,0.311733,0.2232364,0.3200402,1.5976611,-0
 .5481521,0.2489414,0.0624833,0.2290667,-0.7567878,-0.1006811,0.0706473
 ,-0.1222587,-0.422902,-0.441126,-0.0907218,-0.1464028,-0.0892523,-0.56
 57468,-0.2713427,-0.1323332,-0.256693,-0.6785505,-0.3955431,-0.065266,
 0.0719803,-0.0619781,-0.361405,0.0699616,0.0706257,0.0735776,-0.461109
 9,-0.8487261,0.0719874,-0.1967646,0.0804184,-0.3819146,0.0081034,-0.21
 49483,0.0041992,-0.4546985,0.3991194,0.0269581,-0.0177307,0.0259492,0.
 3685811,-0.0177741,-0.0172279,-0.0188652,0.4195999\Polar=22.1603978,-0
 .9033816,21.4708865,-0.1663608,1.050518,21.4086647\Quadrupole=0.867448
 1,-2.2529151,1.385467,0.0479162,-3.2610809,0.0003942\PG=C01 [X(B1F4H1)
 ]\NImag=0\\0.53168124,-0.10797322,0.47480982,0.15419688,0.18191613,0.3
 9116487,-0.13856905,0.12575490,0.04220898,0.15629948,0.12951315,-0.242
 81346,-0.06229332,-0.16593203,0.28630320,0.04067043,-0.05822026,-0.072
 35118,-0.03799802,0.08660736,0.06427439,-0.08739378,-0.06536574,-0.073
 74262,0.01354120,0.01214957,0.00624197,0.09367000,-0.06611470,-0.17211
 758,-0.13628918,0.00433496,-0.03114068,-0.03667583,0.06966870,0.192303
 29,-0.07561111,-0.13839949,-0.21208902,-0.00017959,-0.02877786,-0.0062
 0641,0.10250319,0.18256985,0.23591790,-0.00102720,0.00412453,-0.007397
 06,0.00140930,-0.00310593,0.00180465,0.00054257,-0.00013132,0.00293221
 ,0.23925447,0.00401324,-0.00676626,-0.00414756,-0.00313305,-0.00333470
 ,0.00554680,0.00001238,0.00193149,0.00066261,-0.24097376,0.25759125,-0
 .00735867,-0.00426894,0.00344685,0.00181712,0.00552035,-0.00233810,0.0
 0231212,0.00106679,-0.00424587,-0.15554581,0.15400718,0.10621278,-0.30
 340587,0.04288781,-0.11947116,-0.03271428,0.02659097,-0.00913179,-0.02
 011020,-0.00730509,-0.02856080,-0.00274867,-0.00137239,0.00346187,0.35
 864703,0.04169781,-0.05964478,0.02111123,0.03729810,-0.00660434,0.0040
 3598,-0.01617795,0.01031170,-0.01643340,-0.00195103,0.00119504,0.00097
 131,-0.06061576,0.05600009,-0.11680696,0.02111918,-0.10857861,-0.00389
 516,-0.00073133,0.01551383,-0.03683583,-0.01138067,-0.01353158,0.00313
 328,0.00059970,-0.00024072,0.15488910,-0.01011133,0.10729438,-0.001285
 33,0.00057171,0.00420498,0.00003336,0.00078427,-0.00158724,-0.00024978
 ,-0.00045254,-0.00108390,-0.23743046,0.24145358,0.15531337,0.00033199,
 -0.00025117,-0.00048442,0.23860023,-0.00113628,0.00653225,-0.00029730,
 0.00167713,-0.00241001,-0.00129404,-0.00028697,-0.00128820,0.00037828,
 0.24203751,-0.25061681,-0.15729669,-0.00018555,-0.00125771,0.00050444,
 -0.24210585,0.24904049,0.00490943,-0.00214662,-0.00159290,-0.00195333,
 -0.00032520,0.00110747,-0.00047883,0.00070905,0.00015498,0.15507272,-0
 .15666874,-0.10283494,-0.00118721,0.00042621,-0.00045731,-0.15636279,0
 .15800531,0.10362269\\0.00003782,-0.00003195,0.00000957,-0.00001593,0.
 00003056,0.00000220,-0.00001130,-0.00000935,-0.00000713,-0.00000923,0.
 00001861,-0.00001637,0.00000117,0.00001111,-0.00000481,-0.00000253,-0.
 00001898,0.00001654\\\@


 DEMOCRATS BUY MOST OF THE BOOKS THAT HAVE BEEN
 BANNED; REPUBLICANS FORM CENSORSHIP COMMITTEES AND
 READ THEM AS A GROUP.
 Job cpu time:       0 days  0 hours  7 minutes  3.2 seconds.
 Elapsed time:       0 days  0 hours  1 minutes  0.9 seconds.
 File lengths (MBytes):  RWF=     28 Int=      0 D2E=      0 Chk=      3 Scr=      1
 Normal termination of Gaussian 16 at Sat Aug  1 14:27:14 2020.
