 Entering Gaussian System, Link 0=/home/ubuntu/g16/g16
 Input=HBr_UB3LYP-aug-cc-pVDZ-Opt.gjf
 Output=HBr_UB3LYP-aug-cc-pVDZ-Opt.log
 Initial command:
 /home/ubuntu/g16/l1.exe "/home/ubuntu/g16/Gau-26607.inp" -scrdir="/home/ubuntu/g16/"
 Entering Link 1 = /home/ubuntu/g16/l1.exe PID=     26609.
  
 Copyright (c) 1988,1990,1992,1993,1995,1998,2003,2009,2016,
            Gaussian, Inc.  All Rights Reserved.
  
 This is part of the Gaussian(R) 16 program.  It is based on
 the Gaussian(R) 09 system (copyright 2009, Gaussian, Inc.),
 the Gaussian(R) 03 system (copyright 2003, Gaussian, Inc.),
 the Gaussian(R) 98 system (copyright 1998, Gaussian, Inc.),
 the Gaussian(R) 94 system (copyright 1995, Gaussian, Inc.),
 the Gaussian 92(TM) system (copyright 1992, Gaussian, Inc.),
 the Gaussian 90(TM) system (copyright 1990, Gaussian, Inc.),
 the Gaussian 88(TM) system (copyright 1988, Gaussian, Inc.),
 the Gaussian 86(TM) system (copyright 1986, Carnegie Mellon
 University), and the Gaussian 82(TM) system (copyright 1983,
 Carnegie Mellon University). Gaussian is a federally registered
 trademark of Gaussian, Inc.
  
 This software contains proprietary and confidential information,
 including trade secrets, belonging to Gaussian, Inc.
  
 This software is provided under written license and may be
 used, copied, transmitted, or stored only in accord with that
 written license.
  
 The following legend is applicable only to US Government
 contracts under FAR:
  
                    RESTRICTED RIGHTS LEGEND
  
 Use, reproduction and disclosure by the US Government is
 subject to restrictions as set forth in subparagraphs (a)
 and (c) of the Commercial Computer Software - Restricted
 Rights clause in FAR 52.227-19.
  
 Gaussian, Inc.
 340 Quinnipiac St., Bldg. 40, Wallingford CT 06492
  
  
 ---------------------------------------------------------------
 Warning -- This program may not be used in any manner that
 competes with the business of Gaussian, Inc. or will provide
 assistance to any competitor of Gaussian, Inc.  The licensee
 of this program is prohibited from giving any competitor of
 Gaussian, Inc. access to this program.  By using this program,
 the user acknowledges that Gaussian, Inc. is engaged in the
 business of creating and licensing software in the field of
 computational chemistry and represents and warrants to the
 licensee that it is not a competitor of Gaussian, Inc. and that
 it will not use this program in any manner prohibited above.
 ---------------------------------------------------------------
  

 Cite this work as:
 Gaussian 16, Revision A.03,
 M. J. Frisch, G. W. Trucks, H. B. Schlegel, G. E. Scuseria, 
 M. A. Robb, J. R. Cheeseman, G. Scalmani, V. Barone, 
 G. A. Petersson, H. Nakatsuji, X. Li, M. Caricato, A. V. Marenich, 
 J. Bloino, B. G. Janesko, R. Gomperts, B. Mennucci, H. P. Hratchian, 
 J. V. Ortiz, A. F. Izmaylov, J. L. Sonnenberg, D. Williams-Young, 
 F. Ding, F. Lipparini, F. Egidi, J. Goings, B. Peng, A. Petrone, 
 T. Henderson, D. Ranasinghe, V. G. Zakrzewski, J. Gao, N. Rega, 
 G. Zheng, W. Liang, M. Hada, M. Ehara, K. Toyota, R. Fukuda, 
 J. Hasegawa, M. Ishida, T. Nakajima, Y. Honda, O. Kitao, H. Nakai, 
 T. Vreven, K. Throssell, J. A. Montgomery, Jr., J. E. Peralta, 
 F. Ogliaro, M. J. Bearpark, J. J. Heyd, E. N. Brothers, K. N. Kudin, 
 V. N. Staroverov, T. A. Keith, R. Kobayashi, J. Normand, 
 K. Raghavachari, A. P. Rendell, J. C. Burant, S. S. Iyengar, 
 J. Tomasi, M. Cossi, J. M. Millam, M. Klene, C. Adamo, R. Cammi, 
 J. W. Ochterski, R. L. Martin, K. Morokuma, O. Farkas, 
 J. B. Foresman, and D. J. Fox, Gaussian, Inc., Wallingford CT, 2016.
 
 ******************************************
 Gaussian 16:  ES64L-G16RevA.03 25-Dec-2016
                11-Mar-2019 
 ******************************************
 %chk=HBr_UB3LYP-aug-cc-pVDZ-Opt.chk
 %mem=500MW
 %nproc=7
 Will use up to    7 processors via shared memory.
 ----------------------------------------------------------------------
 #p opt=(maxcycles=777) freq ub3lyp/aug-cc-pVDZ pop=(Bonding,AllOrbital
 s,mk,no,nboread)
 ----------------------------------------------------------------------
 1/6=777,18=20,19=15,26=3,38=1/1,3;
 2/9=110,12=2,17=6,18=5,40=1/2;
 3/5=16,7=10,11=2,25=1,30=1,71=1,74=-5,116=2/1,2,3;
 4//1;
 5/5=2,38=5/2;
 6/7=2,8=2,9=2,10=2,15=8,20=1,22=-1,27=20,28=1,31=1,40=2,96=-1/1,2,7;
 7//1,2,3,16;
 1/6=777,18=20,19=15,26=3/3(2);
 2/9=110/2;
 99//99;
 2/9=110/2;
 3/5=16,7=10,11=2,25=1,30=1,71=1,74=-5,116=2/1,2,3;
 4/5=5,16=3,69=1/1;
 5/5=2,38=5/2;
 7//1,2,3,16;
 1/6=777,18=20,19=15,26=3/3(-5);
 2/9=110/2;
 6/7=2,8=2,9=2,10=2,15=8,19=2,20=1,22=-1,27=20,28=1,31=1,40=2,96=-1/1,2,7;
 99/9=1/99;
 Leave Link    1 at Mon Mar 11 18:00:55 2019, MaxMem=   524288000 cpu:               0.9 elap:               0.1
 (Enter /home/ubuntu/g16/l101.exe)
 ----------------------
 HBr_UB3LYP-aug-cc-pVDZ
 ----------------------
 Symbolic Z-matrix:
 Charge =  0 Multiplicity = 1
 Br                   -0.74756  -0.5277    0.004 
 H                    -2.04244  -0.5277    0.004 
 
 ITRead=  0  0
 MicOpt= -1 -1
 NAtoms=      2 NQM=        2 NQMF=       0 NMMI=      0 NMMIF=      0
                NMic=       0 NMicF=      0.
                    Isotopes and Nuclear Properties:
 (Nuclear quadrupole moments (NQMom) in fm**2, nuclear magnetic moments (NMagM)
  in nuclear magnetons)

  Atom         1           2
 IAtWgt=          79           1
 AtmWgt=  78.9183361   1.0078250
 NucSpn=           3           1
 AtZEff=  -0.0000000  -0.0000000
 NQMom=   31.3000000   0.0000000
 NMagM=    2.1063990   2.7928460
 AtZNuc=  35.0000000   1.0000000
 Leave Link  101 at Mon Mar 11 18:00:55 2019, MaxMem=   524288000 cpu:               0.7 elap:               0.1
 (Enter /home/ubuntu/g16/l103.exe)

 GradGradGradGradGradGradGradGradGradGradGradGradGradGradGradGradGradGrad
 Berny optimization.
 Initialization pass.
                           ----------------------------
                           !    Initial Parameters    !
                           ! (Angstroms and Degrees)  !
 --------------------------                            --------------------------
 ! Name  Definition              Value          Derivative Info.                !
 --------------------------------------------------------------------------------
 ! R1    R(1,2)                  1.2949         estimate D2E/DX2                !
 --------------------------------------------------------------------------------
 Trust Radius=3.00D-01 FncErr=1.00D-07 GrdErr=1.00D-06 EigMax=2.50D+02 EigMin=1.00D-04
 Number of steps in this run=    100 maximum allowed number of steps=    100.
 GradGradGradGradGradGradGradGradGradGradGradGradGradGradGradGradGradGrad

 Leave Link  103 at Mon Mar 11 18:00:55 2019, MaxMem=   524288000 cpu:               0.0 elap:               0.0
 (Enter /home/ubuntu/g16/l202.exe)
                          Input orientation:                          
 ---------------------------------------------------------------------
 Center     Atomic      Atomic             Coordinates (Angstroms)
 Number     Number       Type             X           Y           Z
 ---------------------------------------------------------------------
      1         35           0       -0.747560   -0.527700    0.004000
      2          1           0       -2.042440   -0.527700    0.004000
 ---------------------------------------------------------------------
 Stoichiometry    BrH
 Framework group  C*V[C*(HBr)]
 Deg. of freedom     1
 Full point group                 C*V     NOp   4
 Largest Abelian subgroup         C2V     NOp   4
 Largest concise Abelian subgroup C1      NOp   1
                         Standard orientation:                         
 ---------------------------------------------------------------------
 Center     Atomic      Atomic             Coordinates (Angstroms)
 Number     Number       Type             X           Y           Z
 ---------------------------------------------------------------------
      1         35           0        0.000000    0.000000    0.035969
      2          1           0        0.000000    0.000000   -1.258911
 ---------------------------------------------------------------------
 Rotational constants (GHZ):           0.0000000         302.8893788         302.8893788
 Leave Link  202 at Mon Mar 11 18:00:56 2019, MaxMem=   524288000 cpu:               0.2 elap:               0.1
 (Enter /home/ubuntu/g16/l301.exe)
 Standard basis: Aug-CC-pVDZ (5D, 7F)
 Ernie: Thresh=  0.10000D-02 Tol=  0.10000D-05 Strict=F.
 Ernie:  23 primitive shells out of 100 were deleted.
 There are    25 symmetry adapted cartesian basis functions of A1  symmetry.
 There are     3 symmetry adapted cartesian basis functions of A2  symmetry.
 There are    10 symmetry adapted cartesian basis functions of B1  symmetry.
 There are    10 symmetry adapted cartesian basis functions of B2  symmetry.
 There are    22 symmetry adapted basis functions of A1  symmetry.
 There are     3 symmetry adapted basis functions of A2  symmetry.
 There are    10 symmetry adapted basis functions of B1  symmetry.
 There are    10 symmetry adapted basis functions of B2  symmetry.
    45 basis functions,   168 primitive gaussians,    48 cartesian basis functions
    18 alpha electrons       18 beta electrons
       nuclear repulsion energy        14.3034121943 Hartrees.
 IExCor=  402 DFT=T Ex+Corr=B3LYP ExCW=0 ScaHFX=  0.200000
 ScaDFX=  0.800000  0.720000  1.000000  0.810000 ScalE2=  1.000000  1.000000
 IRadAn=      5 IRanWt=     -1 IRanGd=            0 ICorTp=0 IEmpDi=  4
 NAtoms=    2 NActive=    2 NUniq=    2 SFac= 1.00D+00 NAtFMM=   60 NAOKFM=F Big=F
 Integral buffers will be    131072 words long.
 Raffenetti 2 integral format.
 Two-electron integral symmetry is turned on.
 Leave Link  301 at Mon Mar 11 18:00:56 2019, MaxMem=   524288000 cpu:               0.5 elap:               0.1
 (Enter /home/ubuntu/g16/l302.exe)
 NPDir=0 NMtPBC=     1 NCelOv=     1 NCel=       1 NClECP=     1 NCelD=      1
         NCelK=      1 NCelE2=     1 NClLst=     1 CellRange=     0.0.
 One-electron integrals computed using PRISM.
 One-electron integral symmetry used in STVInt
 NBasis=    45 RedAO= T EigKep=  1.16D-03  NBF=    22     3    10    10
 NBsUse=    45 1.00D-06 EigRej= -1.00D+00 NBFU=    22     3    10    10
 Precomputing XC quadrature grid using
 IXCGrd= 4 IRadAn=           5 IRanWt=          -1 IRanGd=           0 AccXCQ= 0.00D+00.
 Generated NRdTot=       0 NPtTot=           0 NUsed=           0 NTot=          32
 NSgBfM=    48    48    48    48    48 MxSgAt=     2 MxSgA2=     2.
 Leave Link  302 at Mon Mar 11 18:00:56 2019, MaxMem=   524288000 cpu:               1.2 elap:               0.2
 (Enter /home/ubuntu/g16/l303.exe)
 DipDrv:  MaxL=1.
 Leave Link  303 at Mon Mar 11 18:00:56 2019, MaxMem=   524288000 cpu:               0.2 elap:               0.1
 (Enter /home/ubuntu/g16/l401.exe)
 ExpMin= 2.97D-02 ExpMax= 6.40D+05 ExpMxC= 6.18D+03 IAcc=3 IRadAn=         5 AccDes= 0.00D+00
 Harris functional with IExCor=  402 and IRadAn=       5 diagonalized for initial guess.
 HarFok:  IExCor=  402 AccDes= 0.00D+00 IRadAn=         5 IDoV= 1 UseB2=F ITyADJ=14
 ICtDFT=  3500011 ScaDFX=  1.000000  1.000000  1.000000  1.000000
 FoFCou: FMM=F IPFlag=           0 FMFlag=      100000 FMFlg1=           0
         NFxFlg=           0 DoJE=T BraDBF=F KetDBF=T FulRan=T
         wScrn=  0.000000 ICntrl=       500 IOpCl=  0 I1Cent=   200000004 NGrid=           0
         NMat0=    1 NMatS0=      1 NMatT0=    0 NMatD0=    1 NMtDS0=    0 NMtDT0=    0
 Petite list used in FoFCou.
 Harris En= -2574.81860089449    
 JPrj=0 DoOrth=F DoCkMO=F.
 Initial guess orbital symmetries:
 Alpha Orbitals:
       Occupied  (SG) (SG) (SG) (PI) (PI) (SG) (SG) (PI) (PI) (SG)
                 (PI) (PI) (DLTA) (DLTA) (SG) (SG) (PI) (PI)
       Virtual   (SG) (SG) (SG) (PI) (PI) (SG) (PI) (PI) (DLTA)
                 (DLTA) (SG) (PI) (PI) (SG) (SG) (PI) (PI) (SG)
                 (DLTA) (DLTA) (PI) (PI) (SG) (SG) (PI) (PI) (SG)
 Beta  Orbitals:
       Occupied  (SG) (SG) (SG) (PI) (PI) (SG) (SG) (PI) (PI) (SG)
                 (PI) (PI) (DLTA) (DLTA) (SG) (SG) (PI) (PI)
       Virtual   (SG) (SG) (SG) (PI) (PI) (SG) (PI) (PI) (DLTA)
                 (DLTA) (SG) (PI) (PI) (SG) (SG) (PI) (PI) (SG)
                 (DLTA) (DLTA) (PI) (PI) (SG) (SG) (PI) (PI) (SG)
 The electronic state of the initial guess is 1-SG.
 Initial guess <Sx>= 0.0000 <Sy>= 0.0000 <Sz>= 0.0000 <S**2>=-0.0000 S=-0.0000
 Leave Link  401 at Mon Mar 11 18:00:57 2019, MaxMem=   524288000 cpu:               2.3 elap:               0.4
 (Enter /home/ubuntu/g16/l502.exe)
 Keep R1 and R2 ints in memory in symmetry-blocked form, NReq=6639266.
 FoFCou: FMM=F IPFlag=           0 FMFlag=           0 FMFlg1=           0
         NFxFlg=           0 DoJE=F BraDBF=F KetDBF=F FulRan=T
         wScrn=  0.000000 ICntrl=       600 IOpCl=  0 I1Cent=           0 NGrid=           0
         NMat0=    1 NMatS0=   1035 NMatT0=    0 NMatD0=    1 NMtDS0=    0 NMtDT0=    0
 Petite list used in FoFCou.
 UHF open shell SCF:
 Using DIIS extrapolation, IDIIS=  1040.
 NGot=   524288000 LenX=   523988737 LenY=   523985992
 Requested convergence on RMS density matrix=1.00D-08 within 128 cycles.
 Requested convergence on MAX density matrix=1.00D-06.
 Requested convergence on             energy=1.00D-06.
 No special actions if energy rises.

 Cycle   1  Pass 1  IDiag  1:
 E= -2574.73994500782    
 DIIS: error= 2.40D-02 at cycle   1 NSaved=   1.
 NSaved= 1 IEnMin= 1 EnMin= -2574.73994500782     IErMin= 1 ErrMin= 2.40D-02
 ErrMax= 2.40D-02  0.00D+00 EMaxC= 1.00D-01 BMatC= 1.60D-01 BMatP= 1.60D-01
 IDIUse=3 WtCom= 7.60D-01 WtEn= 2.40D-01
 Coeff-Com:  0.100D+01
 Coeff-En:   0.100D+01
 Coeff:      0.100D+01
 Gap=     0.317 Goal=   None    Shift=    0.000
 Gap=     0.317 Goal=   None    Shift=    0.000
 GapD=    0.317 DampG=1.000 DampE=0.500 DampFc=0.5000 IDamp=-1.
 Damping current iteration by 5.00D-01
 RMSDP=5.80D-03 MaxDP=7.15D-02              OVMax= 2.08D-02

 Cycle   2  Pass 1  IDiag  1:
 E= -2574.74646250433     Delta-E=       -0.006517496514 Rises=F Damp=T
 DIIS: error= 1.01D-02 at cycle   2 NSaved=   2.
 NSaved= 2 IEnMin= 2 EnMin= -2574.74646250433     IErMin= 2 ErrMin= 1.01D-02
 ErrMax= 1.01D-02  0.00D+00 EMaxC= 1.00D-01 BMatC= 2.53D-02 BMatP= 1.60D-01
 IDIUse=3 WtCom= 8.99D-01 WtEn= 1.01D-01
 Coeff-Com: -0.618D+00 0.162D+01
 Coeff-En:   0.000D+00 0.100D+01
 Coeff:     -0.555D+00 0.156D+01
 Gap=     0.290 Goal=   None    Shift=    0.000
 Gap=     0.290 Goal=   None    Shift=    0.000
 RMSDP=2.10D-03 MaxDP=1.96D-02 DE=-6.52D-03 OVMax= 1.54D-02

 Cycle   3  Pass 1  IDiag  1:
 E= -2574.75192222080     Delta-E=       -0.005459716468 Rises=F Damp=F
 DIIS: error= 2.32D-03 at cycle   3 NSaved=   3.
 NSaved= 3 IEnMin= 3 EnMin= -2574.75192222080     IErMin= 3 ErrMin= 2.32D-03
 ErrMax= 2.32D-03  0.00D+00 EMaxC= 1.00D-01 BMatC= 8.71D-04 BMatP= 2.53D-02
 IDIUse=3 WtCom= 9.77D-01 WtEn= 2.32D-02
 Coeff-Com: -0.245D+00 0.581D+00 0.664D+00
 Coeff-En:   0.000D+00 0.000D+00 0.100D+01
 Coeff:     -0.240D+00 0.567D+00 0.672D+00
 Gap=     0.297 Goal=   None    Shift=    0.000
 Gap=     0.297 Goal=   None    Shift=    0.000
 RMSDP=4.46D-04 MaxDP=5.83D-03 DE=-5.46D-03 OVMax= 8.17D-03

 Cycle   4  Pass 1  IDiag  1:
 E= -2574.75217871746     Delta-E=       -0.000256496662 Rises=F Damp=F
 DIIS: error= 6.46D-04 at cycle   4 NSaved=   4.
 NSaved= 4 IEnMin= 4 EnMin= -2574.75217871746     IErMin= 4 ErrMin= 6.46D-04
 ErrMax= 6.46D-04  0.00D+00 EMaxC= 1.00D-01 BMatC= 4.37D-05 BMatP= 8.71D-04
 IDIUse=3 WtCom= 9.94D-01 WtEn= 6.46D-03
 Coeff-Com: -0.166D-01 0.351D-01 0.207D+00 0.774D+00
 Coeff-En:   0.000D+00 0.000D+00 0.000D+00 0.100D+01
 Coeff:     -0.165D-01 0.349D-01 0.206D+00 0.776D+00
 Gap=     0.296 Goal=   None    Shift=    0.000
 Gap=     0.296 Goal=   None    Shift=    0.000
 RMSDP=8.57D-05 MaxDP=1.03D-03 DE=-2.56D-04 OVMax= 1.83D-03

 Cycle   5  Pass 1  IDiag  1:
 E= -2574.75219387004     Delta-E=       -0.000015152574 Rises=F Damp=F
 DIIS: error= 7.57D-05 at cycle   5 NSaved=   5.
 NSaved= 5 IEnMin= 5 EnMin= -2574.75219387004     IErMin= 5 ErrMin= 7.57D-05
 ErrMax= 7.57D-05  0.00D+00 EMaxC= 1.00D-01 BMatC= 9.43D-07 BMatP= 4.37D-05
 IDIUse=1 WtCom= 1.00D+00 WtEn= 0.00D+00
 Coeff-Com: -0.214D-02 0.403D-02 0.736D-01 0.322D+00 0.602D+00
 Coeff:     -0.214D-02 0.403D-02 0.736D-01 0.322D+00 0.602D+00
 Gap=     0.296 Goal=   None    Shift=    0.000
 Gap=     0.296 Goal=   None    Shift=    0.000
 RMSDP=1.11D-05 MaxDP=1.52D-04 DE=-1.52D-05 OVMax= 1.59D-04

 Cycle   6  Pass 1  IDiag  1:
 E= -2574.75219417092     Delta-E=       -0.000000300881 Rises=F Damp=F
 DIIS: error= 2.13D-06 at cycle   6 NSaved=   6.
 NSaved= 6 IEnMin= 6 EnMin= -2574.75219417092     IErMin= 6 ErrMin= 2.13D-06
 ErrMax= 2.13D-06  0.00D+00 EMaxC= 1.00D-01 BMatC= 8.12D-10 BMatP= 9.43D-07
 IDIUse=1 WtCom= 1.00D+00 WtEn= 0.00D+00
 Coeff-Com:  0.671D-04-0.159D-03 0.344D-03 0.503D-02 0.302D-01 0.965D+00
 Coeff:      0.671D-04-0.159D-03 0.344D-03 0.503D-02 0.302D-01 0.965D+00
 Gap=     0.296 Goal=   None    Shift=    0.000
 Gap=     0.296 Goal=   None    Shift=    0.000
 RMSDP=3.83D-07 MaxDP=5.95D-06 DE=-3.01D-07 OVMax= 3.49D-06

 Cycle   7  Pass 1  IDiag  1:
 E= -2574.75219417115     Delta-E=       -0.000000000235 Rises=F Damp=F
 DIIS: error= 1.68D-07 at cycle   7 NSaved=   7.
 NSaved= 7 IEnMin= 7 EnMin= -2574.75219417115     IErMin= 7 ErrMin= 1.68D-07
 ErrMax= 1.68D-07  0.00D+00 EMaxC= 1.00D-01 BMatC= 5.96D-12 BMatP= 8.12D-10
 IDIUse=1 WtCom= 1.00D+00 WtEn= 0.00D+00
 Coeff-Com:  0.272D-04-0.545D-04-0.695D-03-0.251D-02-0.993D-03 0.113D+00
 Coeff-Com:  0.891D+00
 Coeff:      0.272D-04-0.545D-04-0.695D-03-0.251D-02-0.993D-03 0.113D+00
 Coeff:      0.891D+00
 Gap=     0.296 Goal=   None    Shift=    0.000
 Gap=     0.296 Goal=   None    Shift=    0.000
 RMSDP=4.44D-08 MaxDP=6.40D-07 DE=-2.35D-10 OVMax= 4.16D-07

 Cycle   8  Pass 1  IDiag  1:
 E= -2574.75219417115     Delta-E=        0.000000000005 Rises=F Damp=F
 DIIS: error= 3.86D-09 at cycle   8 NSaved=   8.
 NSaved= 8 IEnMin= 7 EnMin= -2574.75219417115     IErMin= 8 ErrMin= 3.86D-09
 ErrMax= 3.86D-09  0.00D+00 EMaxC= 1.00D-01 BMatC= 3.69D-15 BMatP= 5.96D-12
 IDIUse=1 WtCom= 1.00D+00 WtEn= 0.00D+00
 Coeff-Com: -0.139D-05 0.280D-05 0.345D-04 0.124D-03 0.598D-04-0.731D-02
 Coeff-Com: -0.439D-01 0.105D+01
 Coeff:     -0.139D-05 0.280D-05 0.345D-04 0.124D-03 0.598D-04-0.731D-02
 Coeff:     -0.439D-01 0.105D+01
 Gap=     0.296 Goal=   None    Shift=    0.000
 Gap=     0.296 Goal=   None    Shift=    0.000
 RMSDP=1.33D-09 MaxDP=1.76D-08 DE= 5.00D-12 OVMax= 1.08D-08

 SCF Done:  E(UB3LYP) =  -2574.75219417     A.U. after    8 cycles
            NFock=  8  Conv=0.13D-08     -V/T= 2.0014
 <Sx>= 0.0000 <Sy>= 0.0000 <Sz>= 0.0000 <S**2>= 0.0000 S= 0.0000
 <L.S>= 0.000000000000E+00
 KE= 2.571228164676D+03 PE=-6.181376853373D+03 EE= 1.021093082331D+03
 Annihilation of the first spin contaminant:
 S**2 before annihilation     0.0000,   after     0.0000
 Leave Link  502 at Mon Mar 11 18:00:58 2019, MaxMem=   524288000 cpu:               5.0 elap:               0.8
 (Enter /home/ubuntu/g16/l601.exe)
 Copying SCF densities to generalized density rwf, IOpCl= 1 IROHF=0.

 **********************************************************************

            Population analysis using the SCF density.

 **********************************************************************

 Orbital symmetries:
 Alpha Orbitals:
       Occupied  (SG) (SG) (SG) (PI) (PI) (SG) (SG) (PI) (PI) (SG)
                 (PI) (PI) (DLTA) (DLTA) (SG) (SG) (PI) (PI)
       Virtual   (SG) (SG) (SG) (PI) (PI) (SG) (PI) (PI) (DLTA)
                 (DLTA) (SG) (PI) (PI) (SG) (SG) (PI) (PI) (SG)
                 (PI) (PI) (DLTA) (DLTA) (SG) (SG) (PI) (PI) (SG)
 Beta  Orbitals:
       Occupied  (SG) (SG) (SG) (PI) (PI) (SG) (SG) (PI) (PI) (SG)
                 (PI) (PI) (DLTA) (DLTA) (SG) (SG) (PI) (PI)
       Virtual   (SG) (SG) (SG) (PI) (PI) (SG) (PI) (PI) (DLTA)
                 (DLTA) (SG) (PI) (PI) (SG) (SG) (PI) (PI) (SG)
                 (PI) (PI) (DLTA) (DLTA) (SG) (SG) (PI) (PI) (SG)
 The electronic state is 1-SG.
     Natural Orbital Coefficients:
                           1         2         3         4         5
     Eigenvalues --     2.00000   2.00000   2.00000   2.00000   2.00000
   1 1   Br 1S         -0.13620   0.12809  -0.04692   0.18135   0.17869
   2        2S          0.24483  -0.03724   0.02778  -0.11756  -0.09519
   3        3S         -0.27928  -0.12314   0.03654   0.29253  -0.14013
   4        4S          0.08219   0.00798  -0.01053  -0.09777   0.03196
   5        5S         -0.13627   0.12242  -0.00710  -0.11084   0.02441
   6        6S         -0.09429   0.04624   0.00066  -0.01238  -0.00404
   7        7PX         0.00040   0.00541  -1.05422  -0.06943   0.01562
   8        7PY         0.00000  -0.00000   0.00000   0.00000  -0.00000
   9        7PZ        -0.26775  -0.28831  -0.08404  -0.00772   0.37757
  10        8PX         0.00017   0.01371   0.45858   0.00271   0.87269
  11        8PY        -0.00000   0.00000  -0.00000  -0.00000   0.00000
  12        8PZ         0.52007   0.88699   0.00163   0.03613  -0.06722
  13        9PX        -0.00016  -0.00288   0.02698  -0.03690  -0.10880
  14        9PY         0.00000  -0.00000  -0.00000   0.00000  -0.00000
  15        9PZ        -0.38563   0.18165   0.00261  -0.05115  -0.01562
  16       10PX        -0.00014  -0.00279   0.01066  -0.03191  -0.11462
  17       10PY        -0.00000   0.00000   0.00000   0.00000  -0.00000
  18       10PZ        -0.15386   0.04413  -0.00031  -0.02790  -0.00281
  19       11PX        -0.00001  -0.00027   0.00225  -0.00332  -0.01026
  20       11PY        -0.00000  -0.00000   0.00000   0.00000   0.00000
  21       11PZ         0.01014  -0.00412  -0.00003   0.00099   0.00050
  22       12D 0       -0.09624  -0.22423  -0.05536  -0.11393  -0.02684
  23       12D+1        0.00009   0.00119  -0.11902  -0.01670  -0.23179
  24       12D-1        0.00000   0.00000   0.00000   0.00000  -0.00000
  25       12D+2       -0.00680  -0.00126  -0.06706   0.92999   0.01842
  26       12D-2       -0.00000  -0.00000   0.00088   0.01549  -0.00116
  27       13D 0        0.03879  -0.02155  -0.00150   0.00096   0.00178
  28       13D+1        0.00001   0.00012  -0.00307   0.00085  -0.00078
  29       13D-1       -0.00000  -0.00000  -0.00000  -0.00000   0.00000
  30       13D+2       -0.00013  -0.00002  -0.00128   0.01776   0.00035
  31       13D-2       -0.00000  -0.00000   0.00002   0.00030  -0.00002
  32       14D 0       -0.03010   0.01609   0.00046  -0.00171  -0.00181
  33       14D+1        0.00000   0.00002   0.00011   0.00001   0.00020
  34       14D-1        0.00000  -0.00000   0.00000   0.00000  -0.00000
  35       14D+2       -0.00001  -0.00000  -0.00015   0.00201   0.00004
  36       14D-2       -0.00000  -0.00000   0.00000   0.00003  -0.00000
  37 2   H  1S          0.41077  -0.15306  -0.00606   0.02152   0.02256
  38        2S          0.23364  -0.12038  -0.00186   0.03110   0.00766
  39        3S          0.02617  -0.01092  -0.00030   0.00185   0.00159
  40        4PX        -0.00001  -0.00013   0.00072  -0.00143  -0.00477
  41        4PY         0.00000  -0.00000   0.00000  -0.00000   0.00000
  42        4PZ         0.03813  -0.01288  -0.00100  -0.00101   0.00263
  43        5PX        -0.00001  -0.00014   0.00115  -0.00183  -0.00581
  44        5PY         0.00000  -0.00000  -0.00000  -0.00000   0.00000
  45        5PZ         0.04135  -0.02556  -0.00048   0.00517   0.00116
                           6         7         8         9        10
     Eigenvalues --     2.00000   2.00000   2.00000   2.00000   2.00000
   1 1   Br 1S         -0.00000   0.53953  -0.00000  -0.01788  -0.06004
   2        2S          0.00000  -0.08872   0.00000   0.04912   0.15080
   3        3S         -0.00000  -0.29384  -0.00000  -0.01404  -0.01098
   4        4S          0.00000   0.06086   0.00000   0.00974   0.01995
   5        5S         -0.00000   0.04819  -0.00000   0.00718   0.00940
   6        6S         -0.00000  -0.00630  -0.00000   0.00273   0.00795
   7        7PX         0.00000  -0.13607   0.00000  -0.05307  -0.02055
   8        7PY        -1.02877   0.00000   0.12784  -0.00000  -0.00000
   9        7PZ        -0.00000   0.68412  -0.00000  -0.03879  -0.08463
  10        8PX         0.00000  -0.33649   0.00000   0.10256   0.10408
  11        8PY         0.52078  -0.00000   0.95170   0.00000   0.00000
  12        8PZ         0.00000  -0.08426   0.00000   0.06245   0.23643
  13        9PX         0.00000   0.05903   0.00000  -0.06120   0.13476
  14        9PY         0.10388   0.00000  -0.10053  -0.00000   0.00000
  15        9PZ        -0.00000  -0.02462  -0.00000   0.01066   0.03069
  16       10PX         0.00000   0.05874   0.00000  -0.05501   0.11340
  17       10PY         0.07537  -0.00000  -0.10915   0.00000  -0.00000
  18       10PZ        -0.00000  -0.00350  -0.00000   0.00599   0.01719
  19       11PX         0.00000   0.00548   0.00000  -0.00569   0.01206
  20       11PY         0.00912   0.00000  -0.00964  -0.00000  -0.00000
  21       11PZ         0.00000   0.00065   0.00000  -0.00052  -0.00174
  22       12D 0       -0.00000   0.07378  -0.00000   0.24641   0.87219
  23       12D+1        0.00000   0.14742   0.00000   0.22910   0.04183
  24       12D-1       -0.07925  -0.00000  -0.08892  -0.00000  -0.00000
  25       12D+2       -0.00000  -0.01948  -0.00000   0.01654   0.13693
  26       12D-2        0.00000   0.00014   0.00000   0.92349  -0.25091
  27       13D 0        0.00000   0.00514   0.00000   0.00363   0.01325
  28       13D+1        0.00000   0.00089   0.00000   0.00649  -0.00343
  29       13D-1       -0.00471   0.00000   0.00180  -0.00000  -0.00000
  30       13D+2       -0.00000  -0.00037  -0.00000   0.00032   0.00262
  31       13D-2        0.00000   0.00000   0.00000   0.01764  -0.00479
  32       14D 0       -0.00000  -0.00299  -0.00000   0.00043   0.00134
  33       14D+1        0.00000   0.00006   0.00000   0.00076   0.00001
  34       14D-1        0.00015  -0.00000   0.00061   0.00000  -0.00000
  35       14D+2       -0.00000  -0.00004  -0.00000   0.00004   0.00030
  36       14D-2        0.00000   0.00000   0.00000   0.00200  -0.00054
  37 2   H  1S          0.00000   0.04075   0.00000  -0.00365  -0.00983
  38        2S          0.00000   0.01198   0.00000  -0.00374  -0.00897
  39        3S          0.00000   0.00264   0.00000  -0.00074  -0.00238
  40        4PX         0.00000   0.00239   0.00000  -0.00299   0.00512
  41        4PY         0.00361  -0.00000  -0.00481   0.00000   0.00000
  42        4PZ         0.00000   0.00542   0.00000   0.00093   0.00319
  43        5PX         0.00000   0.00321   0.00000  -0.00249   0.00665
  44        5PY         0.00497  -0.00000  -0.00511  -0.00000  -0.00000
  45        5PZ         0.00000   0.00190   0.00000   0.00010   0.00104
                          11        12        13        14        15
     Eigenvalues --     2.00000   2.00000   2.00000   2.00000   2.00000
   1 1   Br 1S         -0.00000  -0.09421  -0.00349   0.00000  -0.60078
   2        2S          0.00000  -0.09929   0.00708   0.00000  -0.18493
   3        3S         -0.00000   0.02676   0.01487  -0.00000   0.41143
   4        4S          0.00000  -0.00782  -0.00504  -0.00000  -0.14270
   5        5S         -0.00000  -0.00620  -0.00413   0.00000  -0.14652
   6        6S         -0.00000  -0.00247  -0.00033   0.00000  -0.01066
   7        7PX         0.00000   0.10452  -0.14314   0.00000  -0.03599
   8        7PY         0.29072   0.00000   0.00000   0.12259   0.00000
   9        7PZ        -0.00000   0.06672  -0.03930   0.00000   0.55394
  10        8PX         0.00000   0.09026   0.28820   0.00000  -0.07270
  11        8PY        -0.16605  -0.00000  -0.00000   0.03573  -0.00000
  12        8PZ         0.00000  -0.05122  -0.01354  -0.00000   0.15535
  13        9PX         0.00000   0.48844  -0.20645   0.00000  -0.05657
  14        9PY         0.44622  -0.00000   0.00000   0.32452   0.00000
  15        9PZ        -0.00000  -0.00954  -0.00131   0.00000  -0.04457
  16       10PX         0.00000   0.41828  -0.18407   0.00000  -0.04696
  17       10PY         0.38775   0.00000  -0.00000   0.27896  -0.00000
  18       10PZ        -0.00000  -0.00541  -0.00103   0.00000  -0.02958
  19       11PX         0.00000   0.04381  -0.01920   0.00000  -0.00505
  20       11PY         0.04059   0.00000  -0.00000   0.02884   0.00000
  21       11PZ         0.00000   0.00051   0.00007  -0.00000   0.00046
  22       12D 0       -0.00000  -0.24424  -0.04531   0.00000   0.01447
  23       12D+1        0.00000   0.32359   0.86069   0.00000   0.00230
  24       12D-1       -0.57714  -0.00000   0.00000   0.80148  -0.00000
  25       12D+2       -0.00000   0.05630  -0.01439   0.00000  -0.03390
  26       12D-2        0.00000   0.07419  -0.26146   0.00000  -0.00082
  27       13D 0        0.00000  -0.00364  -0.00081  -0.00000   0.00180
  28       13D+1        0.00000  -0.00915   0.02359   0.00000   0.00182
  29       13D-1       -0.02560  -0.00000  -0.00000   0.00544   0.00000
  30       13D+2       -0.00000   0.00108  -0.00027   0.00000  -0.00065
  31       13D-2        0.00000   0.00142  -0.00499   0.00000  -0.00002
  32       14D 0       -0.00000  -0.00044   0.00003   0.00000  -0.00015
  33       14D+1        0.00000   0.00026   0.00273   0.00000   0.00003
  34       14D-1       -0.00223   0.00000   0.00000   0.00167  -0.00000
  35       14D+2       -0.00000   0.00012  -0.00003   0.00000  -0.00007
  36       14D-2        0.00000   0.00016  -0.00057   0.00000  -0.00000
  37 2   H  1S          0.00000   0.00312  -0.00092  -0.00000   0.00619
  38        2S          0.00000   0.00347   0.00043  -0.00000   0.02764
  39        3S          0.00000   0.00068   0.00003  -0.00000   0.00075
  40        4PX         0.00000   0.01855  -0.01021   0.00000  -0.00216
  41        4PY         0.01899   0.00000  -0.00000   0.01117  -0.00000
  42        4PZ         0.00000  -0.00096  -0.00039  -0.00000  -0.00293
  43        5PX         0.00000   0.02445  -0.00822   0.00000  -0.00274
  44        5PY         0.02047  -0.00000  -0.00000   0.01748  -0.00000
  45        5PZ         0.00000  -0.00006  -0.00004  -0.00000   0.00448
                          16        17        18        19        20
     Eigenvalues --     2.00000   2.00000   2.00000   0.00000   0.00000
   1 1   Br 1S          0.36717  -0.43711   0.17599   0.00142  -0.00000
   2        2S          0.27059   1.00334  -0.28348  -0.01700   0.00000
   3        3S          0.64743  -0.42228   0.51691  -0.00769   0.00000
   4        4S         -0.27434   0.20782   0.45115  -0.14230   0.00000
   5        5S         -0.27299   0.22263   0.22463   0.00371  -0.00000
   6        6S         -0.02058   0.02613  -0.00289   0.10513  -0.00000
   7        7PX         0.05733   0.00571   0.00055   0.07494   0.00000
   8        7PY        -0.00000   0.00000   0.00000  -0.00000  -0.00912
   9        7PZ         0.02955   0.27505   0.01918  -0.00831   0.00000
  10        8PX         0.05130   0.00030   0.00061  -0.11328  -0.00000
  11        8PY         0.00000  -0.00000   0.00000   0.00000  -0.00077
  12        8PZ         0.11763  -0.13873   0.05209   0.02129  -0.00000
  13        9PX         0.03999   0.00106  -0.00009   0.64505   0.00000
  14        9PY         0.00000   0.00000  -0.00000  -0.00000  -0.14979
  15        9PZ        -0.08710   0.11442   0.01524  -0.02868   0.00000
  16       10PX         0.03324   0.00091  -0.00009  -0.20032  -0.00000
  17       10PY        -0.00000  -0.00000  -0.00000   0.00000  -0.03789
  18       10PZ        -0.05691   0.06518   0.07145  -0.09174   0.00000
  19       11PX         0.00357   0.00009  -0.00001  -0.53415   0.00000
  20       11PY        -0.00000   0.00000   0.00000   0.00000  -1.18371
  21       11PZ         0.00090  -0.00130   0.00411  -0.03444   0.00000
  22       12D 0       -0.05464  -0.14877  -0.02124   0.09312  -0.00000
  23       12D+1        0.00247   0.00073   0.00043   0.02323   0.00000
  24       12D-1        0.00000  -0.00000   0.00000  -0.00000   0.11814
  25       12D+2       -0.26797   0.14984  -0.04573  -0.00029   0.00000
  26       12D-2        0.01199   0.00000   0.00000   0.00128   0.00000
  27       13D 0        0.00171  -0.00949   0.00933  -0.21126   0.00000
  28       13D+1       -0.00120  -0.00002   0.00001  -0.02881  -0.00000
  29       13D-1       -0.00000   0.00000  -0.00000  -0.00000  -0.88265
  30       13D+2       -0.00512   0.00286  -0.00087  -0.00223  -0.00000
  31       13D-2        0.00023   0.00000   0.00000  -0.01103   0.00000
  32       14D 0       -0.00004   0.00266  -0.01821  -0.33985   0.00000
  33       14D+1       -0.00001   0.00000   0.00000  -0.22909   0.00000
  34       14D-1        0.00000  -0.00000   0.00000   0.00000   1.58262
  35       14D+2       -0.00058   0.00032  -0.00010   0.00923   0.00000
  36       14D-2        0.00003   0.00000   0.00000   0.01697  -0.00000
  37 2   H  1S          0.01104  -0.06109   0.08522   0.14498  -0.00000
  38        2S          0.05060  -0.06209   0.05730  -0.10340   0.00000
  39        3S          0.00159  -0.00416   0.00386   0.00480  -0.00000
  40        4PX         0.00152   0.00004  -0.00000   0.00929  -0.00000
  41        4PY        -0.00000   0.00000  -0.00000   0.00000  -0.18564
  42        4PZ        -0.00562  -0.00156   0.01311  -0.09137   0.00000
  43        5PX         0.00195   0.00005  -0.00000  -0.22459   0.00000
  44        5PY         0.00000  -0.00000   0.00000  -0.00000   1.44137
  45        5PZ         0.00759  -0.00888   0.02633   0.19206  -0.00000
                          21        22        23        24        25
     Eigenvalues --     0.00000   0.00000   0.00000   0.00000   0.00000
   1 1   Br 1S         -0.00000  -0.00679  -0.00272   0.01149   0.00000
   2        2S          0.00000   0.06856  -0.10718   0.03590  -0.00000
   3        3S         -0.00000   0.01367  -0.24195   0.25921   0.00000
   4        4S         -0.00000   0.56149  -1.11675   0.47655  -0.00000
   5        5S          0.00000  -0.71772   6.63799  -4.38815  -0.00000
   6        6S          0.00000  -0.35966   4.67776  -0.63502   0.00000
   7        7PX        -0.00000   0.00868  -0.00867   0.00616   0.00000
   8        7PY        -0.04508   0.00000   0.00000  -0.00000   0.08734
   9        7PZ        -0.00000   0.03333   0.07499   0.06247   0.00000
  10        8PX         0.00000  -0.01205   0.01040  -0.01055  -0.00000
  11        8PY         0.06741  -0.00000  -0.00000   0.00000  -0.07556
  12        8PZ         0.00000  -0.03660  -0.03780  -0.03969  -0.00000
  13        9PX        -0.00000   0.08264  -0.09012   0.04845   0.00000
  14        9PY        -0.39351   0.00000   0.00000  -0.00000   1.02428
  15        9PZ        -0.00000   0.35248   1.02563   0.82434   0.00000
  16       10PX         0.00000   0.14124   0.03509  -0.05832  -0.00000
  17       10PY        -0.07373  -0.00000  -0.00000   0.00000  -2.20538
  18       10PZ        -0.00000  -0.33383  -5.25172   1.35992  -0.00000
  19       11PX        -0.00000   0.36680  -0.17991  -0.15682   0.00000
  20       11PY        -0.24788  -0.00000  -0.00000   0.00000   0.56660
  21       11PZ         0.00000   0.18921  -0.72073   0.78402  -0.00000
  22       12D 0        0.00000   0.08435   0.00199   0.09465   0.00000
  23       12D+1        0.00000   0.02713  -0.07631  -0.02752   0.00000
  24       12D-1       -0.03626   0.00000   0.00000  -0.00000   0.02197
  25       12D+2        0.00000  -0.01634  -0.05612  -0.02470  -0.00000
  26       12D-2        0.00000  -0.10517  -0.10036   0.01792   0.00000
  27       13D 0       -0.00000  -0.40168  -0.44921  -1.05644  -0.00000
  28       13D+1        0.00000  -0.08431   0.37173   0.07758  -0.00000
  29       13D-1        0.44948  -0.00000  -0.00000   0.00000  -0.33386
  30       13D+2       -0.00000   0.05096   0.27541   0.10828   0.00000
  31       13D-2       -0.00000   0.19358   0.43339  -0.01502  -0.00000
  32       14D 0       -0.00000   0.29255   1.07839   0.56480  -0.00000
  33       14D+1       -0.00000  -0.37679  -0.03712   0.04550   0.00000
  34       14D-1       -0.49385  -0.00000  -0.00000   0.00000   1.15099
  35       14D+2       -0.00000   0.03114  -0.16954  -0.03904   0.00000
  36       14D-2        0.00000   0.57021  -0.14046  -0.14660   0.00000
  37 2   H  1S          0.00000  -0.06453   0.32326   0.51449   0.00000
  38        2S         -0.00000   0.36049  -9.43087   3.78958   0.00000
  39        3S         -0.00000   0.19904  -1.62462   0.41069   0.00000
  40        4PX         0.00000  -0.26295   0.28855  -0.23086   0.00000
  41        4PY         0.16346  -0.00000  -0.00000   0.00000  -0.09020
  42        4PZ         0.00000  -0.05268   0.81371   0.74447  -0.00000
  43        5PX        -0.00000  -0.57529   0.12800   0.26324   0.00000
  44        5PY         0.84674  -0.00000  -0.00000   0.00000   1.50532
  45        5PZ         0.00000   0.23545  -4.43779   2.20599   0.00000
                          26        27        28        29        30
     Eigenvalues --     0.00000   0.00000   0.00000   0.00000   0.00000
   1 1   Br 1S          0.00361  -0.00712   0.00720  -0.00041  -0.00327
   2        2S          0.10392   0.04536   0.02405   0.01199   0.01900
   3        3S          0.25268  -0.03335   0.16567   0.01535  -0.01881
   4        4S          1.04651   0.29950   0.30391   0.11147   0.12148
   5        5S         -4.05301  -0.51431  -1.70537  -0.30779  -0.03443
   6        6S         -0.20069  -1.37002  -2.03063   0.44406   0.09248
   7        7PX         0.00049   0.04693   0.00315  -0.01845  -0.09034
   8        7PY        -0.00000  -0.00000   0.00000  -0.00000   0.00000
   9        7PZ        -0.00433  -0.01891   0.04722  -0.02350  -0.03721
  10        8PX         0.00105  -0.05445  -0.00358   0.04894   0.08666
  11        8PY         0.00000   0.00000  -0.00000   0.00000  -0.00000
  12        8PZ        -0.00753   0.04363  -0.07120   0.04605   0.07060
  13        9PX         0.01313   0.48160   0.03309  -0.05930  -1.01895
  14        9PY        -0.00000  -0.00000   0.00000  -0.00000   0.00000
  15        9PZ        -0.09346  -0.08100   0.43055  -0.15024  -0.24657
  16       10PX         0.00125  -0.50247   0.04812  -0.67520   1.89972
  17       10PY         0.00000   0.00000  -0.00000   0.00000  -0.00000
  18       10PZ         2.32474   0.64612   1.68342  -0.11879  -0.01881
  19       11PX         0.10984   0.28444   0.16488   0.41571  -0.55525
  20       11PY         0.00000   0.00000  -0.00000   0.00000  -0.00000
  21       11PZ        -0.24478   0.32464   0.56252   0.16315   0.11340
  22       12D 0       -0.02140  -0.10843   0.03900   0.11697   0.01769
  23       12D+1        0.05514  -0.02898   0.08834   0.10009   0.02344
  24       12D-1       -0.00000  -0.00000   0.00000  -0.00000   0.00000
  25       12D+2       -0.23543   0.03817   0.08856   0.01574   0.01029
  26       12D-2        0.11663   0.01426   0.11503  -0.00767  -0.00173
  27       13D 0        0.01893   0.26299  -0.44331  -0.39574  -0.08371
  28       13D+1       -0.19085   0.23652  -0.44193  -0.36018  -0.00702
  29       13D-1        0.00000   0.00000  -0.00000   0.00000  -0.00000
  30       13D+2        1.00459  -0.14702  -0.26875  -0.03667  -0.02310
  31       13D-2       -0.59178  -0.10536  -0.56014   0.01313  -0.00150
  32       14D 0       -0.69104  -0.07313  -0.76491  -0.11948  -0.05031
  33       14D+1       -0.09169  -0.28048   0.20342   0.30502  -0.52360
  34       14D-1        0.00000   0.00000  -0.00000   0.00000  -0.00000
  35       14D+2       -0.29613   0.00441  -0.18902  -0.06410  -0.04434
  36       14D-2        0.40578   0.14049   0.33547   0.04429   0.02233
  37 2   H  1S          0.38000  -0.02863   1.08770   0.23928  -0.04731
  38        2S          3.61482   1.19901   2.56953  -0.24436  -0.16937
  39        3S         -0.40198   0.14603   1.04812  -0.28040  -0.16342
  40        4PX         0.01081   0.36276   0.01121   0.27280   0.09891
  41        4PY         0.00000   0.00000  -0.00000   0.00000  -0.00000
  42        4PZ         0.27586   0.36069   0.62708  -0.09369   0.14216
  43        5PX        -0.13868  -0.35483  -0.28528   0.66518  -1.02774
  44        5PY         0.00000   0.00000  -0.00000   0.00000  -0.00000
  45        5PZ         1.34901   0.51495   0.39225   0.14883   0.01298
                          31        32        33        34        35
     Eigenvalues --     0.00000   0.00000  -0.00000  -0.00000  -0.00000
   1 1   Br 1S         -0.00449   0.00581   0.00141  -0.00607   0.01451
   2        2S          0.11842   0.04621  -0.14311   0.19264  -0.01536
   3        3S          0.14338   0.18244  -0.24122   0.25351   0.21359
   4        4S          1.09734   0.52372  -1.35884   1.80770   0.05689
   5        5S         -2.08617  -2.00827   3.89401  -3.72264  -4.53611
   6        6S          2.45805   2.87150   0.74509   1.08050  -4.39637
   7        7PX         0.00513   0.01046  -0.01196  -0.00770  -0.00495
   8        7PY        -0.00000  -0.00000   0.00000   0.00000  -0.00000
   9        7PZ         0.04801  -0.00740   0.05308  -0.02407  -0.01001
  10        8PX        -0.00486  -0.01202   0.01796   0.00820   0.00689
  11        8PY         0.00000   0.00000  -0.00000  -0.00000   0.00000
  12        8PZ        -0.05314   0.00817  -0.05271   0.01790  -0.01745
  13        9PX         0.05946   0.11039  -0.10463  -0.08417  -0.04389
  14        9PY        -0.00000  -0.00000   0.00000   0.00000  -0.00000
  15        9PZ         0.50254  -0.06749   0.58309  -0.30211  -0.23486
  16       10PX        -0.01941  -0.17129   0.10783  -0.01250  -0.12780
  17       10PY         0.00000   0.00000  -0.00000  -0.00000   0.00000
  18       10PZ        -0.90325   0.61540  -2.49275   0.72650   4.33764
  19       11PX         0.21724   0.02010   0.24446  -0.29159  -0.20548
  20       11PY        -0.00000   0.00000  -0.00000  -0.00000   0.00000
  21       11PZ        -0.19853  -1.51436  -0.41548  -0.05896   1.26118
  22       12D 0       -0.10142  -0.00853  -0.01738  -0.04773  -0.15224
  23       12D+1        0.05878   0.09614  -0.06756  -0.09291   0.00175
  24       12D-1       -0.00000  -0.00000   0.00000   0.00000  -0.00000
  25       12D+2        0.07003   0.02556  -0.03121   0.04236  -0.01669
  26       12D-2        0.03977  -0.12457   0.05347   0.06190  -0.05246
  27       13D 0        0.67762  -0.32652   0.11097   0.37169   0.97030
  28       13D+1       -0.31205  -0.50481   0.20219   0.44133  -0.08041
  29       13D-1        0.00000   0.00000  -0.00000  -0.00000   0.00000
  30       13D+2       -0.32850  -0.06752   0.11237  -0.16016   0.21021
  31       13D-2       -0.07621   0.60914  -0.30304  -0.46062   0.09234
  32       14D 0       -0.46335   0.44004   0.45752  -0.31771  -2.15847
  33       14D+1        0.11202   0.30185   0.14615  -0.06831   0.24433
  34       14D-1       -0.00000   0.00000  -0.00000  -0.00000   0.00000
  35       14D+2        0.16977  -0.08217   0.01806  -0.00340  -0.40362
  36       14D-2       -0.20735  -0.37029   0.27342   0.61877   0.29603
  37 2   H  1S         -0.38193   0.83818   0.40642   0.13514   0.08981
  38        2S          0.03717  -1.37544  -4.61497   0.76795   8.71836
  39        3S         -1.52860  -1.20093   0.28282   0.22505   1.08108
  40        4PX        -0.12936  -0.30157   0.18032   0.09839  -0.30921
  41        4PY         0.00000   0.00000  -0.00000  -0.00000   0.00000
  42        4PZ        -0.12243   0.29485  -0.24409  -0.31774   0.10236
  43        5PX        -0.20057   0.20747  -0.27947   0.37633   0.59241
  44        5PY         0.00000   0.00000  -0.00000  -0.00000   0.00000
  45        5PZ        -0.04741   0.40490  -0.71485   0.76252   2.92899
                          36        37        38        39        40
     Eigenvalues --    -0.00000  -0.00000  -0.00000  -0.00000  -0.00000
   1 1   Br 1S         -0.00859  -0.00000   0.01145  -0.00321  -0.00281
   2        2S          0.05117   0.00000   0.02239   0.02274   0.02718
   3        3S         -0.04800   0.00000   0.23170  -0.01137   0.00348
   4        4S          0.35499   0.00000   0.39470   0.16936   0.22163
   5        5S         -0.45612   0.00000  -4.07038  -0.60257  -0.35524
   6        6S         -3.08574   0.00000  -1.34442   0.78890  -0.01752
   7        7PX        -0.01013  -0.00000  -0.00408  -0.00818   0.01068
   8        7PY        -0.00000  -0.07566   0.00000  -0.00000   0.00000
   9        7PZ         0.02417  -0.00000   0.00682   0.01765  -0.02176
  10        8PX         0.01509   0.00000   0.00546   0.00975  -0.00855
  11        8PY         0.00000   0.11178  -0.00000   0.00000  -0.00000
  12        8PZ        -0.01882   0.00000  -0.02677  -0.01745   0.03513
  13        9PX        -0.08824  -0.00000  -0.04334  -0.08466   0.12614
  14        9PY        -0.00000  -0.66882   0.00000  -0.00000   0.00000
  15        9PZ         0.29493  -0.00000  -0.01901   0.19360  -0.17793
  16       10PX        -0.06437   0.00000   0.32026   0.05420  -0.57215
  17       10PY         0.00000   0.23799  -0.00000  -0.00000  -0.00000
  18       10PZ         0.21864   0.00000   2.45583  -0.18030   0.06990
  19       11PX        -0.13955  -0.00000   0.33621  -0.12065  -0.35981
  20       11PY         0.00000   0.32570  -0.00000  -0.00000  -0.00000
  21       11PZ         0.81267   0.00000   0.38455  -0.74061   0.14106
  22       12D 0       -0.05472  -0.00000  -0.04033   0.07312   0.01451
  23       12D+1        0.06607  -0.00000   0.00486  -0.04101   0.12164
  24       12D-1       -0.00000  -0.05388   0.00000   0.00000   0.00000
  25       12D+2       -0.05380   0.00000   0.00113  -0.04887  -0.01695
  26       12D-2       -0.08050  -0.00000  -0.07361   0.02300  -0.01657
  27       13D 0        0.36174   0.00000   0.18930  -0.40694  -0.05476
  28       13D+1       -0.30249  -0.00000   0.17816   0.18089  -1.01891
  29       13D-1        0.00000   0.05615  -0.00000   0.00000  -0.00000
  30       13D+2        0.24524   0.00000  -0.01395   0.57768   0.03830
  31       13D-2        0.52969   0.00000   0.31750  -0.09379   0.00057
  32       14D 0       -0.49862   0.00000  -0.53442   0.64216   0.13221
  33       14D+1        0.23807  -0.00000  -0.49851   0.04742   1.93814
  34       14D-1        0.00000   0.76659  -0.00000  -0.00000  -0.00000
  35       14D+2       -0.11081  -0.00000   0.02658  -1.07770   0.07231
  36       14D-2       -0.61389  -0.00000  -0.10197   0.01698   0.17220
  37 2   H  1S         -0.22278  -0.00000  -0.09232  -0.33272  -0.30871
  38        2S          1.60125  -0.00000   4.95097   0.00328   0.40376
  39        3S          2.15590   0.00000   0.63090  -0.64918  -0.04728
  40        4PX        -0.06017  -0.00000   0.81831   0.17663   0.12100
  41        4PY         0.00000   0.62757  -0.00000   0.00000  -0.00000
  42        4PZ         0.04471   0.00000   0.01345  -0.04077  -0.00620
  43        5PX         0.37928  -0.00000  -1.11134   0.08280   1.02767
  44        5PY         0.00000   0.13522   0.00000   0.00000  -0.00000
  45        5PZ         0.80550  -0.00000   2.12532   0.44912   0.06715
                          41        42        43        44        45
     Eigenvalues --    -0.00000  -0.00000  -0.00000  -0.00000  -0.00000
   1 1   Br 1S          0.00518  -0.00602  -0.00000   0.00000  -0.00018
   2        2S          0.22910  -0.01750   0.00000  -0.00000   0.00226
   3        3S          0.50921  -0.13425  -0.00000   0.00000  -0.00004
   4        4S          2.30453  -0.21675   0.00000  -0.00000   0.04884
   5        5S         -9.11202   3.00641   0.00000  -0.00000   0.15693
   6        6S         -3.90466   1.05349   0.00000   0.00000  -0.25218
   7        7PX        -0.00537   0.02375  -0.00000   0.00000  -0.01488
   8        7PY         0.00000  -0.00000  -0.00671   0.04982  -0.00000
   9        7PZ        -0.01161  -0.03497  -0.00000   0.00000   0.05425
  10        8PX         0.00608  -0.03062   0.00000  -0.00000   0.01025
  11        8PY        -0.00000   0.00000   0.00057  -0.07378   0.00000
  12        8PZ        -0.05477   0.03880   0.00000  -0.00000  -0.10902
  13        9PX        -0.05745   0.23140  -0.00000   0.00000  -0.18850
  14        9PY         0.00000  -0.00000  -0.10092   0.43039  -0.00000
  15        9PZ        -0.43942  -0.38613  -0.00000   0.00000   0.32527
  16       10PX         0.09091  -0.07995   0.00000  -0.00000   0.26315
  17       10PY        -0.00000   0.00000   0.16108  -0.09970   0.00000
  18       10PZ         6.18736  -2.03216   0.00000  -0.00000  -0.14772
  19       11PX         0.03992   0.27948  -0.00000   0.00000  -0.60660
  20       11PY        -0.00000   0.00000  -0.25918  -0.28283  -0.00000
  21       11PZ         0.78652   0.50649   0.00000  -0.00000   0.11196
  22       12D 0        0.04937  -0.04695  -0.00000   0.00000  -0.05659
  23       12D+1       -0.11228   0.02165  -0.00000   0.00000   0.10922
  24       12D-1        0.00000  -0.00000  -0.24614  -0.15044  -0.00000
  25       12D+2       -0.01637  -0.10931   0.00000  -0.00000  -0.00592
  26       12D-2       -0.08081  -0.03462   0.00000  -0.00000  -0.00281
  27       13D 0        0.04083   0.47175   0.00000  -0.00000   0.28554
  28       13D+1        0.45118  -0.12241   0.00000  -0.00000  -0.41194
  29       13D-1       -0.00000   0.00000   0.97167   0.84050   0.00000
  30       13D+2        0.04249   0.70171  -0.00000   0.00000   0.01454
  31       13D-2        0.49283   0.23702  -0.00000   0.00000  -0.02134
  32       14D 0       -2.09083   0.21895   0.00000  -0.00000   0.09968
  33       14D+1       -0.02652  -0.08700  -0.00000   0.00000   0.15676
  34       14D-1       -0.00000   0.00000  -0.23087  -0.51505  -0.00000
  35       14D+2        0.05472  -0.78521  -0.00000   0.00000   0.02205
  36       14D-2       -0.50916  -0.28936   0.00000  -0.00000   0.08817
  37 2   H  1S          1.04532  -0.18674  -0.00000   0.00000   0.35429
  38        2S         10.65754  -3.80937  -0.00000   0.00000  -0.10333
  39        3S          0.61176   0.15932  -0.00000   0.00000  -0.09328
  40        4PX         0.17944  -0.10722  -0.00000   0.00000   0.10129
  41        4PY        -0.00000   0.00000  -0.51367   0.84460  -0.00000
  42        4PZ        -0.21434  -0.56195   0.00000  -0.00000  -0.46844
  43        5PX        -0.14443  -0.43184  -0.00000   0.00000   0.33792
  44        5PY        -0.00000   0.00000   0.39505  -0.61223   0.00000
  45        5PZ         3.94439  -1.70555  -0.00000   0.00000   0.08859
          Condensed to atoms (all electrons):
               1          2
     1  Br  34.484090   0.268072
     2  H    0.268072   0.979766
          Atomic-Atomic Spin Densities.
               1          2
     1  Br   0.000000   0.000000
     2  H    0.000000  -0.000000
 Mulliken charges and spin densities:
               1          2
     1  Br   0.247838   0.000000
     2  H   -0.247838  -0.000000
 Sum of Mulliken charges =   0.00000   0.00000
 Mulliken charges and spin densities with hydrogens summed into heavy atoms:
               1          2
     1  Br   0.000000   0.000000

 Bonding Mulliken population analysis:
          Bonding Condensed to atoms (all electrons):
               1          2
     1  Br   0.000000   0.268072
     2  H    0.268072   0.000000
          Bonding Atomic-Atomic Spin Densities.
               1          2
     1  Br   0.000000   0.000000
     2  H    0.000000   0.000000
 Bonding Mulliken charges and spin densities:
               1          2
     1  Br  34.731928   0.000000
     2  H    0.731928   0.000000
 Sum of Bonding Mulliken charges =  35.46386   0.00000
 Bonding Mulliken charges and spin densities with hydrogens summed into heavy atoms:
               1          2
     1  Br  35.463856   0.000000
 Electronic spatial extent (au):  <R**2>=             47.4524
 Charge=              0.0000 electrons
 Dipole moment (field-independent basis, Debye):
    X=              0.0000    Y=              0.0000    Z=             -0.8107  Tot=              0.8107
 Quadrupole moment (field-independent basis, Debye-Ang):
   XX=            -19.8996   YY=            -19.8996   ZZ=            -16.1960
   XY=              0.0000   XZ=             -0.0000   YZ=              0.0000
 Traceless Quadrupole moment (field-independent basis, Debye-Ang):
   XX=             -1.2345   YY=             -1.2345   ZZ=              2.4691
   XY=              0.0000   XZ=             -0.0000   YZ=              0.0000
 Octapole moment (field-independent basis, Debye-Ang**2):
  XXX=              0.0000  YYY=              0.0000  ZZZ=             -0.8612  XYY=              0.0000
  XXY=              0.0000  XXZ=              0.2841  XZZ=              0.0000  YZZ=              0.0000
  YYZ=              0.2841  XYZ=              0.0000
 Hexadecapole moment (field-independent basis, Debye-Ang**3):
 XXXX=            -25.4335 YYYY=            -25.4335 ZZZZ=            -21.8435 XXXY=              0.0000
 XXXZ=             -0.0000 YYYX=              0.0000 YYYZ=              0.0000 ZZZX=             -0.0000
 ZZZY=              0.0000 XXYY=             -8.4778 XXZZ=             -8.5543 YYZZ=             -8.5543
 XXYZ=              0.0000 YYXZ=             -0.0000 ZZXY=              0.0000
 N-N= 1.430341219433D+01 E-N=-6.181376854052D+03  KE= 2.571228164676D+03
 Symmetry A1   KE= 1.863315292744D+03
 Symmetry A2   KE= 4.271980128435D+01
 Symmetry B1   KE= 3.325965353241D+02
 Symmetry B2   KE= 3.325965353241D+02
 Symmetry A1   SP= 1.672198376796D-15
 Symmetry A2   SP=-3.843410534748D-16
 Symmetry B1   SP=-6.558320094627D-15
 Symmetry B2   SP= 1.472113873351D-14

 Atomic contributions to Alpha molecular orbitals:
 Alpha occ 1 OE=-482.893 is Br1-s=1.0000
 Alpha occ 2 OE=-62.546 is Br1-s=0.9998
 Alpha occ 3 OE=-56.362 is Br1-p=1.0000
 Alpha occ 4 OE=-56.359 is Br1-p=1.0000
 Alpha occ 5 OE=-56.359 is Br1-p=1.0000
 Alpha occ 6 OE=-8.728 is Br1-s=0.9879
 Alpha occ 7 OE=-6.558 is Br1-p=0.9990
 Alpha occ 8 OE=-6.546 is Br1-p=0.9999
 Alpha occ 9 OE=-6.546 is Br1-p=0.9999
 Alpha occ 10 OE=-2.669 is Br1-d=0.9986
 Alpha occ 11 OE=-2.665 is Br1-d=1.0000
 Alpha occ 12 OE=-2.665 is Br1-d=1.0000
 Alpha occ 13 OE=-2.655 is Br1-d=1.0000
 Alpha occ 14 OE=-2.655 is Br1-d=1.0000
 Alpha occ 15 OE=-0.822 is Br1-s=0.7699 H2-s=0.1966
 Alpha occ 16 OE=-0.465 is Br1-p=0.5114 H2-s=0.3522 Br1-s=0.1422
 Alpha occ 17 OE=-0.315 is Br1-p=0.9774
 Alpha occ 18 OE=-0.315 is Br1-p=0.9774
 Alpha vir 19 OE=-0.020 is H2-s=1.4361 Br1-s=-0.4134
 Alpha vir 20 OE=0.046 is Br1-p=0.8325
 Alpha vir 21 OE=0.064 is Br1-p=0.4789 H2-s=0.2714
 Alpha vir 22 OE=0.065 is Br1-p=1.0084
 Alpha vir 23 OE=0.065 is Br1-p=1.0084
 Alpha vir 24 OE=0.122 is Br1-s=2.0619 H2-s=-1.1272 Br1-p=0.1618
 Alpha vir 25 OE=0.179 is H2-p=0.6875 Br1-d=0.3063
 Alpha vir 26 OE=0.179 is H2-p=0.6875 Br1-d=0.3063
 Alpha vir 27 OE=0.259 is Br1-d=1.0000
 Alpha vir 28 OE=0.259 is Br1-d=1.0000
 Alpha vir 29 OE=0.339 is H2-s=0.6481 Br1-d=0.3790 Br1-p=-0.1632 H2-p=0.1600
 Alpha vir 30 OE=0.420 is Br1-d=0.6287 H2-p=0.4438
 Alpha vir 31 OE=0.420 is Br1-d=0.6287 H2-p=0.4438
 Alpha vir 32 OE=0.448 is H2-s=2.1812 Br1-s=-1.5359 H2-p=1.2884 Br1-p=-0.8882
 Alpha vir 33 OE=0.643 is Br1-p=0.6063 H2-s=0.3223 Br1-d=0.1695
 Alpha vir 34 OE=0.665 is Br1-p=1.0682
 Alpha vir 35 OE=0.665 is Br1-p=1.0682
 Alpha vir 36 OE=0.705 is Br1-p=0.7099 Br1-d=0.2893 H2-s=-0.1297
 Alpha vir 37 OE=0.967 is Br1-d=0.9315
 Alpha vir 38 OE=0.967 is Br1-d=0.9315
 Alpha vir 39 OE=0.968 is Br1-d=1.0000
 Alpha vir 40 OE=0.968 is Br1-d=1.0000
 Alpha vir 41 OE=1.116 is Br1-d=0.8411
 Alpha vir 42 OE=1.281 is Br1-s=1.7964 H2-s=-1.2354 Br1-p=0.6068 H2-p=-0.4002 Br1-d=0.2324
 Alpha vir 43 OE=1.588 is H2-p=0.8811 Br1-d=0.1150
 Alpha vir 44 OE=1.588 is H2-p=0.8811 Br1-d=0.1150
 Alpha vir 45 OE=2.103 is H2-p=0.8164

 Atomic contributions to Beta  molecular orbitals:
 Beta  occ 1 OE=-482.893 is Br1-s=1.0000
 Beta  occ 2 OE=-62.546 is Br1-s=0.9998
 Beta  occ 3 OE=-56.362 is Br1-p=1.0000
 Beta  occ 4 OE=-56.359 is Br1-p=1.0000
 Beta  occ 5 OE=-56.359 is Br1-p=1.0000
 Beta  occ 6 OE=-8.728 is Br1-s=0.9879
 Beta  occ 7 OE=-6.558 is Br1-p=0.9990
 Beta  occ 8 OE=-6.546 is Br1-p=0.9999
 Beta  occ 9 OE=-6.546 is Br1-p=0.9999
 Beta  occ 10 OE=-2.669 is Br1-d=0.9986
 Beta  occ 11 OE=-2.665 is Br1-d=1.0000
 Beta  occ 12 OE=-2.665 is Br1-d=1.0000
 Beta  occ 13 OE=-2.655 is Br1-d=1.0000
 Beta  occ 14 OE=-2.655 is Br1-d=1.0000
 Beta  occ 15 OE=-0.822 is Br1-s=0.7699 H2-s=0.1966
 Beta  occ 16 OE=-0.465 is Br1-p=0.5114 H2-s=0.3522 Br1-s=0.1422
 Beta  occ 17 OE=-0.315 is Br1-p=0.9774
 Beta  occ 18 OE=-0.315 is Br1-p=0.9774
 Beta  vir 19 OE=-0.020 is H2-s=1.4361 Br1-s=-0.4134
 Beta  vir 20 OE=0.046 is Br1-p=0.8325
 Beta  vir 21 OE=0.064 is Br1-p=0.4789 H2-s=0.2714
 Beta  vir 22 OE=0.065 is Br1-p=1.0084
 Beta  vir 23 OE=0.065 is Br1-p=1.0084
 Beta  vir 24 OE=0.122 is Br1-s=2.0619 H2-s=-1.1272 Br1-p=0.1618
 Beta  vir 25 OE=0.179 is H2-p=0.6875 Br1-d=0.3063
 Beta  vir 26 OE=0.179 is H2-p=0.6875 Br1-d=0.3063
 Beta  vir 27 OE=0.259 is Br1-d=1.0000
 Beta  vir 28 OE=0.259 is Br1-d=1.0000
 Beta  vir 29 OE=0.339 is H2-s=0.6481 Br1-d=0.3790 Br1-p=-0.1632 H2-p=0.1600
 Beta  vir 30 OE=0.420 is Br1-d=0.6287 H2-p=0.4438
 Beta  vir 31 OE=0.420 is Br1-d=0.6287 H2-p=0.4438
 Beta  vir 32 OE=0.448 is H2-s=2.1812 Br1-s=-1.5359 H2-p=1.2884 Br1-p=-0.8882
 Beta  vir 33 OE=0.643 is Br1-p=0.6063 H2-s=0.3223 Br1-d=0.1695
 Beta  vir 34 OE=0.665 is Br1-p=1.0682
 Beta  vir 35 OE=0.665 is Br1-p=1.0682
 Beta  vir 36 OE=0.705 is Br1-p=0.7099 Br1-d=0.2893 H2-s=-0.1297
 Beta  vir 37 OE=0.967 is Br1-d=0.9315
 Beta  vir 38 OE=0.967 is Br1-d=0.9315
 Beta  vir 39 OE=0.968 is Br1-d=1.0000
 Beta  vir 40 OE=0.968 is Br1-d=1.0000
 Beta  vir 41 OE=1.116 is Br1-d=0.8411
 Beta  vir 42 OE=1.281 is Br1-s=1.7964 H2-s=-1.2354 Br1-p=0.6068 H2-p=-0.4002 Br1-d=0.2324
 Beta  vir 43 OE=1.588 is H2-p=0.8811 Br1-d=0.1150
 Beta  vir 44 OE=1.588 is H2-p=0.8811 Br1-d=0.1150
 Beta  vir 45 OE=2.103 is H2-p=0.8164
 
                          Isotropic Fermi Contact Couplings
        Atom                 a.u.       MegaHertz       Gauss      10(-4) cm-1
     1  Br(79)             0.00000       0.00000       0.00000       0.00000
     2  H(1)              -0.00000      -0.00000      -0.00000      -0.00000
 --------------------------------------------------------
       Center         ----  Spin Dipole Couplings  ----
                      3XX-RR        3YY-RR        3ZZ-RR
 --------------------------------------------------------
     1   Atom        0.000000      0.000000      0.000000
     2   Atom        0.000000      0.000000      0.000000
 --------------------------------------------------------
                        XY            XZ            YZ
 --------------------------------------------------------
     1   Atom        0.000000      0.000000      0.000000
     2   Atom        0.000000      0.000000      0.000000
 --------------------------------------------------------


 ---------------------------------------------------------------------------------
              Anisotropic Spin Dipole Couplings in Principal Axis System
 ---------------------------------------------------------------------------------

       Atom             a.u.   MegaHertz   Gauss  10(-4) cm-1        Axes

              Baa     0.0000     0.000     0.000     0.000  1.0000  0.0000  0.0000
     1 Br(79) Bbb     0.0000     0.000     0.000     0.000 -0.0000  1.0000  0.0000
              Bcc     0.0000     0.000     0.000     0.000  0.0000  0.0000  1.0000
 
              Baa     0.0000     0.000     0.000     0.000  1.0000  0.0000  0.0000
     2 H(1)   Bbb     0.0000     0.000     0.000     0.000 -0.0000  1.0000  0.0000
              Bcc     0.0000     0.000     0.000     0.000  0.0000  0.0000  1.0000
 

 ---------------------------------------------------------------------------------

 No NMR shielding tensors so no spin-rotation constants.
 Leave Link  601 at Mon Mar 11 18:00:58 2019, MaxMem=   524288000 cpu:               1.9 elap:               0.4
 (Enter /home/ubuntu/g16/l602.exe)
 FitSet:  NAtFit=     2 NAtPot=     2 NAtFrz=     0 MDM=     6 TotChg=   0.00000
 Merz-Kollman atomic radii used.

 **********************************************************************

            Electrostatic Properties Using The SCF Density

 **********************************************************************

       Atomic Center    1 is at   0.000000  0.000000  0.035969
       Atomic Center    2 is at  -0.000000  0.000000 -1.258911
     715 points will be used for fitting atomic charges
 Fitting point charges to electrostatic potential
 Charges from ESP fit, RMS=   0.00238 RRMS=   0.48417:
 ESP charges:
               1
     1  Br  -0.155205
     2  H    0.155205
 Sum of ESP charges =  -0.00000
 ESP charges with hydrogens summed into heavy atoms:
               1
     1  Br  -0.000000
 Charge=  -0.00000 Dipole=    -0.0000     0.0000    -0.9653 Tot=     0.9653
 -----------------------------------------------------------------

              Electrostatic Properties (Atomic Units)

 -----------------------------------------------------------------
    Center     Electric         -------- Electric Field --------
               Potential          X             Y             Z
 -----------------------------------------------------------------
    1 Atom   -175.766342
    2 Atom     -0.947984
 -----------------------------------------------------------------
 Leave Link  602 at Mon Mar 11 18:00:58 2019, MaxMem=   524288000 cpu:               0.3 elap:               0.1
 (Enter /home/ubuntu/g16/l607.exe)
 ******************************Gaussian NBO Version 3.1******************************
             N A T U R A L   A T O M I C   O R B I T A L   A N D
          N A T U R A L   B O N D   O R B I T A L   A N A L Y S I S
 ******************************Gaussian NBO Version 3.1******************************

       /RESON  / : Allow strongly delocalized NBO set
       /BNDIDX / : Print bond indices based on the NAO density matrix

 Analyzing the SCF density

 Job title: HBr_UB3LYP-aug-cc-pVDZ                                          

 Storage needed:      6417 in NPA,      8693 in NBO ( 524287972 available)
 GSVD:  LWork=        1151 too small for GESVD, short by         483 words or         483 for optimal perf.
 GSVD:  LWork=         575 too small for GESVD, short by        2100 words or        2100 for optimal perf.


 NATURAL POPULATIONS:  Natural atomic orbital occupancies 
                                                          
   NAO  Atom  No  lang   Type(AO)    Occupancy
 --------------------------------------------
     1   Br    1  S      Cor( 1S)     2.00000
     2   Br    1  S      Cor( 2S)     2.00000
     3   Br    1  S      Cor( 3S)     1.99972
     4   Br    1  S      Val( 4S)     1.86931
     5   Br    1  S      Ryd( 5S)     0.00041
     6   Br    1  S      Ryd( 6S)     0.00000
     7   Br    1  px     Cor( 2p)     2.00000
     8   Br    1  px     Cor( 3p)     1.99999
     9   Br    1  px     Val( 4p)     1.99526
    10   Br    1  px     Ryd( 5p)     0.00036
    11   Br    1  px     Ryd( 6p)     0.00000
    12   Br    1  py     Cor( 2p)     2.00000
    13   Br    1  py     Cor( 3p)     1.99999
    14   Br    1  py     Val( 4p)     1.99526
    15   Br    1  py     Ryd( 5p)     0.00036
    16   Br    1  py     Ryd( 6p)     0.00000
    17   Br    1  pz     Cor( 2p)     2.00000
    18   Br    1  pz     Cor( 3p)     1.99986
    19   Br    1  pz     Val( 4p)     1.30094
    20   Br    1  pz     Ryd( 5p)     0.00238
    21   Br    1  pz     Ryd( 6p)     0.00002
    22   Br    1  dxy    Cor( 3d)     2.00000
    23   Br    1  dxy    Ryd( 5d)     0.00000
    24   Br    1  dxy    Ryd( 4d)     0.00000
    25   Br    1  dxz    Cor( 3d)     1.99999
    26   Br    1  dxz    Ryd( 4d)     0.00171
    27   Br    1  dxz    Ryd( 5d)     0.00002
    28   Br    1  dyz    Cor( 3d)     1.99999
    29   Br    1  dyz    Ryd( 4d)     0.00171
    30   Br    1  dyz    Ryd( 5d)     0.00002
    31   Br    1  dx2y2  Cor( 3d)     2.00000
    32   Br    1  dx2y2  Ryd( 5d)     0.00000
    33   Br    1  dx2y2  Ryd( 4d)     0.00000
    34   Br    1  dz2    Cor( 3d)     1.99930
    35   Br    1  dz2    Ryd( 4d)     0.00415
    36   Br    1  dz2    Ryd( 5d)     0.00013

    37    H    2  S      Val( 1S)     0.81736
    38    H    2  S      Ryd( 2S)     0.00076
    39    H    2  S      Ryd( 3S)     0.00001
    40    H    2  px     Ryd( 2p)     0.00179
    41    H    2  px     Ryd( 3p)     0.00087
    42    H    2  py     Ryd( 2p)     0.00179
    43    H    2  py     Ryd( 3p)     0.00087
    44    H    2  pz     Ryd( 2p)     0.00407
    45    H    2  pz     Ryd( 3p)     0.00158


 Summary of Natural Population Analysis:                  
                                                          
                                       Natural Population 
                Natural  -----------------------------------------------
    Atom  No    Charge         Core      Valence    Rydberg      Total
 -----------------------------------------------------------------------
     Br    1   -0.17089     27.99884     7.16077    0.01127    35.17089
      H    2    0.17089      0.00000     0.81736    0.01175     0.82911
 =======================================================================
   * Total *   -0.00000     27.99884     7.97813    0.02302    36.00000

                                 Natural Population      
 --------------------------------------------------------
   Core                      27.99884 ( 99.9959% of  28)
   Valence                    7.97813 ( 99.7267% of   8)
   Natural Minimal Basis     35.97698 ( 99.9360% of  36)
   Natural Rydberg Basis      0.02302 (  0.0640% of  36)
 --------------------------------------------------------

    Atom  No          Natural Electron Configuration
 ----------------------------------------------------------------------------
     Br    1      [core]4S( 1.87)4p( 5.29)4d( 0.01)
      H    2            1S( 0.82)2p( 0.01)


 Wiberg bond index matrix in the NAO basis:                                    

     Atom    1       2
     ---- ------  ------
   1. Br  0.0000  0.9811
   2.  H  0.9811  0.0000


 Wiberg bond index, Totals by atom:                                            

     Atom    1
     ---- ------
   1. Br  0.9811
   2.  H  0.9811


 Atom-atom overlap-weighted NAO bond order:                                    

     Atom    1       2
     ---- ------  ------
   1. Br  0.0000  0.7553
   2.  H  0.7553  0.0000


 Atom-atom overlap-weighted NAO bond order, Totals by atom:                    

     Atom    1
     ---- ------
   1. Br  0.7553
   2.  H  0.7553


 MO bond order:                                                                

     Atom    1       2
     ---- ------  ------
   1. Br  0.0000 -0.1164
   2.  H -0.1164  0.0000


 MO atomic valencies:                                                          

     Atom    1
     ---- ------
   1. Br -0.1164
   2.  H -0.1164


 ***************************************************
 *******         Alpha spin orbitals         *******
 ***************************************************


 NATURAL POPULATIONS:  Natural atomic orbital occupancies 
                                                          
   NAO  Atom  No  lang   Type(AO)    Occupancy      Energy
 ----------------------------------------------------------
     1   Br    1  S      Cor( 1S)     1.00000    -481.77174
     2   Br    1  S      Cor( 2S)     1.00000     -61.27020
     3   Br    1  S      Cor( 3S)     0.99986     -10.79591
     4   Br    1  S      Val( 4S)     0.93465      -1.01384
     5   Br    1  S      Ryd( 6S)     0.00021       1.01671
     6   Br    1  S      Ryd( 5S)     0.00000       0.22326
     7   Br    1  px     Cor( 2p)     1.00000     -56.24458
     8   Br    1  px     Cor( 3p)     1.00000      -6.64971
     9   Br    1  px     Val( 4p)     0.99763      -0.32438
    10   Br    1  px     Ryd( 6p)     0.00018       0.45947
    11   Br    1  px     Ryd( 5p)     0.00000       0.29497
    12   Br    1  py     Cor( 2p)     1.00000     -56.24458
    13   Br    1  py     Cor( 3p)     1.00000      -6.64971
    14   Br    1  py     Val( 4p)     0.99763      -0.32438
    15   Br    1  py     Ryd( 6p)     0.00018       0.45947
    16   Br    1  py     Ryd( 5p)     0.00000       0.29497
    17   Br    1  pz     Cor( 2p)     1.00000     -56.24733
    18   Br    1  pz     Cor( 3p)     0.99993      -6.65823
    19   Br    1  pz     Val( 4p)     0.65047      -0.26525
    20   Br    1  pz     Ryd( 6p)     0.00119       0.62356
    21   Br    1  pz     Ryd( 5p)     0.00001       0.31304
    22   Br    1  dxy    Cor( 3d)     1.00000      -2.65530
    23   Br    1  dxy    Ryd( 4d)     0.00000       0.38055
    24   Br    1  dxy    Ryd( 5d)     0.00000       0.84663
    25   Br    1  dxz    Cor( 3d)     1.00000      -2.66472
    26   Br    1  dxz    Ryd( 4d)     0.00085       0.40762
    27   Br    1  dxz    Ryd( 5d)     0.00001       0.95081
    28   Br    1  dyz    Cor( 3d)     1.00000      -2.66472
    29   Br    1  dyz    Ryd( 4d)     0.00085       0.40762
    30   Br    1  dyz    Ryd( 5d)     0.00001       0.95081
    31   Br    1  dx2y2  Cor( 3d)     1.00000      -2.65530
    32   Br    1  dx2y2  Ryd( 4d)     0.00000       0.38055
    33   Br    1  dx2y2  Ryd( 5d)     0.00000       0.84663
    34   Br    1  dz2    Cor( 3d)     0.99965      -2.66771
    35   Br    1  dz2    Ryd( 4d)     0.00207       0.80132
    36   Br    1  dz2    Ryd( 5d)     0.00006       0.95819

    37    H    2  S      Val( 1S)     0.40868      -0.15452
    38    H    2  S      Ryd( 3S)     0.00038       0.36316
    39    H    2  S      Ryd( 2S)     0.00001       0.09672
    40    H    2  px     Ryd( 3p)     0.00090       1.36581
    41    H    2  px     Ryd( 2p)     0.00044       0.40318
    42    H    2  py     Ryd( 3p)     0.00090       1.36581
    43    H    2  py     Ryd( 2p)     0.00044       0.40318
    44    H    2  pz     Ryd( 3p)     0.00204       1.79781
    45    H    2  pz     Ryd( 2p)     0.00079       0.45511

 WARNING:  Population inversion found on atom Br    1
           Population inversion found on atom  H    2


 Summary of Natural Population Analysis:                  
                                                          
                                       Natural Population 
                Natural  -----------------------------------------------
    Atom  No    Charge         Core      Valence    Rydberg      Total
 -----------------------------------------------------------------------
     Br    1   -0.08545     13.99942     3.58039    0.00564    17.58545
      H    2    0.08545      0.00000     0.40868    0.00587     0.41455
 =======================================================================
   * Total *    0.00000     13.99942     3.98907    0.01151    18.00000

                                 Natural Population      
 --------------------------------------------------------
   Core                      13.99942 ( 99.9959% of  14)
   Valence                    3.98907 ( 99.7267% of   4)
   Natural Minimal Basis     17.98849 ( 99.9360% of  18)
   Natural Rydberg Basis      0.01151 (  0.0640% of  18)
 --------------------------------------------------------

    Atom  No          Natural Electron Configuration
 ----------------------------------------------------------------------------
     Br    1      [core]4S( 0.93)4p( 2.65)
      H    2            1S( 0.41)


 Wiberg bond index matrix in the NAO basis:                                    

     Atom    1       2
     ---- ------  ------
   1. Br  0.0000  0.2453
   2.  H  0.2453  0.0000


 Wiberg bond index, Totals by atom:                                            

     Atom    1
     ---- ------
   1. Br  0.2453
   2.  H  0.2453


 Atom-atom overlap-weighted NAO bond order:                                    

     Atom    1       2
     ---- ------  ------
   1. Br  0.0000  0.3777
   2.  H  0.3777  0.0000


 Atom-atom overlap-weighted NAO bond order, Totals by atom:                    

     Atom    1
     ---- ------
   1. Br  0.3777
   2.  H  0.3777


 MO bond order:                                                                

     Atom    1       2
     ---- ------  ------
   1. Br  0.0000 -0.0582
   2.  H -0.0582  0.0000


 MO atomic valencies:                                                          

     Atom    1
     ---- ------
   1. Br -0.0582
   2.  H -0.0582


 NATURAL BOND ORBITAL ANALYSIS, alpha spin orbitals:

                       Occupancies       Lewis Structure    Low   High
           Occ.    -------------------  -----------------   occ   occ
  Cycle   Thresh.   Lewis   Non-Lewis     CR  BD  3C  LP    (L)   (NL)   Dev
 =============================================================================
   1(1)    0.90    17.99650   0.00350     14   1   0   3     0      0    0.00
 -----------------------------------------------------------------------------

 Structure accepted: No low occupancy Lewis orbitals

 --------------------------------------------------------
   Core                     13.99942 ( 99.996% of  14)
   Valence Lewis             3.99708 ( 99.927% of   4)
  ==================       ============================
   Total Lewis              17.99650 ( 99.981% of  18)
  -----------------------------------------------------
   Valence non-Lewis         0.00035 (  0.002% of  18)
   Rydberg non-Lewis         0.00315 (  0.018% of  18)
  ==================       ============================
   Total non-Lewis           0.00350 (  0.019% of  18)
 --------------------------------------------------------


       (Occupancy)   Bond orbital/ Coefficients/ Hybrids
 ---------------------------------------------------------------------------------
     1. (1.00000) BD ( 1)Br   1 - H   2  
                ( 58.88%)   0.7673*Br   1 s( 15.80%)p 5.31( 83.87%)d 0.02(  0.33%)
                                            0.0000  0.0000 -0.0000 -0.3971 -0.0177
                                            0.0000  0.0000  0.0000  0.0000  0.0000
                                            0.0000  0.0000  0.0000  0.0000  0.0000
                                            0.0000  0.0000  0.0000  0.9148 -0.0434
                                           -0.0013  0.0000  0.0000  0.0000  0.0000
                                            0.0000  0.0000  0.0000  0.0000  0.0000
                                            0.0000  0.0000  0.0000 -0.0000 -0.0570
                                           -0.0073
                ( 41.12%)   0.6413* H   2 s( 99.33%)p 0.01(  0.67%)
                                           -0.9967  0.0001 -0.0000  0.0000  0.0000
                                            0.0000  0.0000 -0.0698  0.0422
     2. (1.00000) CR ( 1)Br   1           s(100.00%)
                                            1.0000 -0.0000  0.0000 -0.0000  0.0000
                                           -0.0000  0.0000  0.0000  0.0000  0.0000
                                            0.0000  0.0000  0.0000  0.0000  0.0000
                                            0.0000  0.0000 -0.0000 -0.0000  0.0000
                                           -0.0000  0.0000  0.0000  0.0000  0.0000
                                            0.0000  0.0000  0.0000  0.0000  0.0000
                                            0.0000  0.0000  0.0000  0.0000  0.0000
                                           -0.0000
     3. (1.00000) CR ( 2)Br   1           s(100.00%)
                                           -0.0000  1.0000  0.0000 -0.0000  0.0000
                                           -0.0000  0.0000  0.0000  0.0000  0.0000
                                            0.0000  0.0000  0.0000  0.0000  0.0000
                                            0.0000  0.0000 -0.0000 -0.0000  0.0000
                                           -0.0000  0.0000  0.0000  0.0000  0.0000
                                            0.0000  0.0000  0.0000  0.0000  0.0000
                                            0.0000  0.0000  0.0000  0.0000  0.0000
                                           -0.0000
     4. (0.99986) CR ( 3)Br   1           s(100.00%)
                                            0.0000  0.0000  1.0000  0.0001 -0.0000
                                            0.0000  0.0000  0.0000  0.0000  0.0000
                                            0.0000  0.0000  0.0000  0.0000  0.0000
                                            0.0000 -0.0000  0.0000  0.0000 -0.0000
                                            0.0000  0.0000  0.0000  0.0000  0.0000
                                            0.0000  0.0000  0.0000  0.0000  0.0000
                                            0.0000  0.0000  0.0000 -0.0000 -0.0000
                                            0.0000
     5. (1.00000) CR ( 4)Br   1           s(  0.00%)p 1.00(100.00%)
                                            0.0000  0.0000  0.0000  0.0000  0.0000
                                            0.0000  1.0000 -0.0000 -0.0000 -0.0000
                                            0.0000  0.0000  0.0000  0.0000  0.0000
                                            0.0000  0.0000  0.0000  0.0000  0.0000
                                            0.0000  0.0000  0.0000  0.0000 -0.0000
                                            0.0000 -0.0000  0.0000  0.0000  0.0000
                                            0.0000  0.0000  0.0000  0.0000  0.0000
                                            0.0000
     6. (1.00000) CR ( 5)Br   1           s(  0.00%)p 1.00(100.00%)
                                            0.0000  0.0000  0.0000  0.0000  0.0000
                                            0.0000 -0.0000  1.0000 -0.0000 -0.0000
                                            0.0000  0.0000  0.0000  0.0000  0.0000
                                            0.0000  0.0000  0.0000  0.0000  0.0000
                                            0.0000  0.0000  0.0000  0.0000 -0.0000
                                            0.0000 -0.0000  0.0000  0.0000  0.0000
                                            0.0000  0.0000  0.0000  0.0000  0.0000
                                            0.0000
     7. (1.00000) CR ( 6)Br   1           s(  0.00%)p 1.00(100.00%)
                                            0.0000  0.0000  0.0000  0.0000  0.0000
                                            0.0000  0.0000  0.0000  0.0000  0.0000
                                            0.0000  1.0000 -0.0000 -0.0000 -0.0000
                                            0.0000  0.0000  0.0000  0.0000  0.0000
                                            0.0000  0.0000  0.0000  0.0000  0.0000
                                            0.0000  0.0000 -0.0000  0.0000 -0.0000
                                            0.0000  0.0000  0.0000  0.0000  0.0000
                                            0.0000
     8. (1.00000) CR ( 7)Br   1           s(  0.00%)p 1.00(100.00%)
                                            0.0000  0.0000  0.0000  0.0000  0.0000
                                            0.0000  0.0000  0.0000  0.0000  0.0000
                                            0.0000 -0.0000  1.0000 -0.0000 -0.0000
                                            0.0000  0.0000  0.0000  0.0000  0.0000
                                            0.0000  0.0000  0.0000  0.0000  0.0000
                                            0.0000  0.0000 -0.0000  0.0000 -0.0000
                                            0.0000  0.0000  0.0000  0.0000  0.0000
                                            0.0000
     9. (1.00000) CR ( 8)Br   1           s(  0.00%)p 1.00(100.00%)
                                            0.0000  0.0000 -0.0000  0.0000 -0.0000
                                            0.0000  0.0000  0.0000  0.0000  0.0000
[...]
    32. (0.00000) RY*(14)Br   1           s(  0.00%)p 0.00(  0.00%)d 1.00(100.00%)
    33. (0.00000) RY*(15)Br   1           s(  0.00%)p 0.00(  0.00%)d 1.00(100.00%)
    34. (0.00000) RY*(16)Br   1           s(  0.00%)p 0.00(  0.00%)d 1.00(100.00%)
    35. (0.00001) RY*(17)Br   1           s(  0.02%)p19.19(  0.41%)d99.99( 99.56%)
    36. (0.00000) RY*(18)Br   1           s(  0.00%)p 0.00(  0.00%)d 1.00( 99.99%)
    37. (0.00095) RY*( 1) H   2           s(  0.00%)p 1.00(100.00%)
                                            0.0000  0.0000  0.0000  0.7768  0.6297
                                            0.0000  0.0000  0.0000  0.0000
    38. (0.00095) RY*( 2) H   2           s(  0.00%)p 1.00(100.00%)
                                            0.0000  0.0000  0.0000  0.0000  0.0000
                                            0.7768  0.6297  0.0000  0.0000
    39. (0.00036) RY*( 3) H   2           s( 89.41%)p 0.12( 10.59%)
                                            0.0207  0.9453  0.0046  0.0000  0.0000
                                            0.0000  0.0000 -0.1639  0.2812
    40. (0.00002) RY*( 4) H   2           s( 61.31%)p 0.63( 38.69%)
    41. (0.00000) RY*( 5) H   2           s(  0.00%)p 1.00(100.00%)
    42. (0.00000) RY*( 6) H   2           s(  0.00%)p 1.00(100.00%)
    43. (0.00000) RY*( 7) H   2           s( 41.27%)p 1.42( 58.73%)
    44. (0.00000) RY*( 8) H   2           s(  8.57%)p10.67( 91.43%)
    45. (0.00017) BD*( 1)Br   1 - H   2  
                ( 39.66%)   0.6298*Br   1 s( 12.14%)p 7.20( 87.43%)d 0.04(  0.43%)
                                            0.0000 -0.0000 -0.0000  0.3482  0.0122
                                           -0.0000 -0.0000 -0.0000 -0.0000 -0.0000
                                           -0.0000 -0.0000 -0.0000 -0.0000 -0.0000
                                           -0.0000 -0.0000 -0.0000 -0.9343  0.0369
                                           -0.0005 -0.0000 -0.0000 -0.0000 -0.0000
                                           -0.0000 -0.0000 -0.0000 -0.0000 -0.0000
                                           -0.0000 -0.0000 -0.0000 -0.0000  0.0654
                                            0.0065
                ( 60.34%)  -0.7768* H   2 s( 99.44%)p 0.01(  0.56%)
                                            0.9972 -0.0000  0.0000 -0.0000 -0.0000
                                           -0.0000 -0.0000  0.0662 -0.0345


 NHO Directionality and "Bond Bending" (deviations from line of nuclear centers)

         [Thresholds for printing:  angular deviation  >  1.0 degree]
                                    hybrid p-character > 25.0%
                                    orbital occupancy  >  0.10e

                                Line of Centers        Hybrid 1              Hybrid 2
                                ---------------  -------------------   ------------------
                NBO               Theta   Phi    Theta   Phi    Dev    Theta   Phi    Dev
 ========================================================================================
    17. LP (   2)Br   1             --     --     90.0    0.0   --       --     --    --
    18. LP (   3)Br   1             --     --     90.0   90.0   --       --     --    --


 Second Order Perturbation Theory Analysis of Fock Matrix in NBO Basis

     Threshold for printing:   0.25 kcal/mol
                                                                              E(2)  E(j)-E(i) F(i,j)
         Donor NBO (i)                     Acceptor NBO (j)                 kcal/mol   a.u.    a.u. 
 ===================================================================================================

 within unit  1
   4. CR (   3)Br   1                / 39. RY*(   3) H   2                    0.89   11.21    0.126
  15. CR (  14)Br   1                / 45. BD*(   1)Br   1 - H   2            0.30    2.78    0.036
  16. LP (   1)Br   1                / 39. RY*(   3) H   2                    0.53    1.35    0.034
  17. LP (   2)Br   1                / 37. RY*(   1) H   2                    0.61    1.03    0.032
  18. LP (   3)Br   1                / 38. RY*(   2) H   2                    0.61    1.03    0.032


 Natural Bond Orbitals (Summary):

                                                            Principal Delocalizations
           NBO                        Occupancy    Energy   (geminal,vicinal,remote)
 ====================================================================================
 Molecular unit  1  (HBr)
     1. BD (   1)Br   1 - H   2          1.00000    -0.60741   
     2. CR (   1)Br   1                  1.00000  -482.50084   
     3. CR (   2)Br   1                  1.00000   -60.59490   
     4. CR (   3)Br   1                  0.99990   -10.79400  39(v)
     5. CR (   4)Br   1                  1.00000   -56.28141   
     6. CR (   5)Br   1                  1.00000    -6.62115   
     7. CR (   6)Br   1                  1.00000   -56.28141   
     8. CR (   7)Br   1                  1.00000    -6.62115   
     9. CR (   8)Br   1                  1.00000   -56.28464   
    10. CR (   9)Br   1                  0.99995    -6.63146   
    11. CR (  10)Br   1                  1.00000    -2.65598   
    12. CR (  11)Br   1                  1.00000    -2.66585   
    13. CR (  12)Br   1                  1.00000    -2.66585   
    14. CR (  13)Br   1                  1.00000    -2.65598   
    15. CR (  14)Br   1                  0.99983    -2.66905  45(g)
    16. LP (   1)Br   1                  0.99976    -0.93700  39(v)
    17. LP (   2)Br   1                  0.99906    -0.31811  37(v)
    18. LP (   3)Br   1                  0.99906    -0.31811  38(v)
    19. RY*(   1)Br   1                  0.00000     0.95900   
    20. RY*(   2)Br   1                  0.00000     0.21040   
    21. RY*(   3)Br   1                  0.00000     0.41444   
    22. RY*(   4)Br   1                  0.00000     0.33147   
    23. RY*(   5)Br   1                  0.00000     0.41444   
    24. RY*(   6)Br   1                  0.00000     0.33147   
    25. RY*(   7)Br   1                  0.00000     0.54712   
    26. RY*(   8)Br   1                  0.00000     0.35949   
    27. RY*(   9)Br   1                  0.00000     0.37344   
    28. RY*(  10)Br   1                  0.00000     0.85651   
    29. RY*(  11)Br   1                  0.00000     0.38958   
    30. RY*(  12)Br   1                  0.00000     0.94420   
    31. RY*(  13)Br   1                  0.00000     0.38958   
    32. RY*(  14)Br   1                  0.00000     0.94420   
    33. RY*(  15)Br   1                  0.00000     0.37344   
    34. RY*(  16)Br   1                  0.00000     0.85651   
    35. RY*(  17)Br   1                  0.00001     0.66731   
    36. RY*(  18)Br   1                  0.00000     0.97248   
    37. RY*(   1) H   2                  0.00095     0.71194   
    38. RY*(   2) H   2                  0.00095     0.71194   
    39. RY*(   3) H   2                  0.00036     0.41102   
    40. RY*(   4) H   2                  0.00002     0.73516   
    41. RY*(   5) H   2                  0.00000     1.05479   
    42. RY*(   6) H   2                  0.00000     1.05479   
    43. RY*(   7) H   2                  0.00000     1.06449   
    44. RY*(   8) H   2                  0.00000     0.44753   
    45. BD*(   1)Br   1 - H   2          0.00017     0.11533   
       -------------------------------
              Total Lewis   17.99754  ( 99.9863%)
        Valence non-Lewis    0.00017  (  0.0009%)
        Rydberg non-Lewis    0.00229  (  0.0127%)
       -------------------------------
            Total unit  1   18.00000  (100.0000%)
           Charge unit  1    0.00000
 Leave Link  607 at Mon Mar 11 18:02:22 2019, MaxMem=   524288000 cpu:              82.4 elap:              26.5
 (Enter /home/ubuntu/g16/l701.exe)
 ... and contract with generalized density number  0.
 Compute integral second derivatives.
 Leave Link  701 at Mon Mar 11 18:02:27 2019, MaxMem=   524288000 cpu:               3.5 elap:               1.6
 (Enter /home/ubuntu/g16/l702.exe)
 L702 exits ... SP integral derivatives will be done elsewhere.
 Leave Link  702 at Mon Mar 11 18:02:27 2019, MaxMem=   524288000 cpu:               0.2 elap:               0.1
 (Enter /home/ubuntu/g16/l703.exe)
 Integral derivatives from FoFJK, PRISM(SPDF).
 Compute integral second derivatives, UseDBF=F ICtDFT=           0.
 Calling FoFJK, ICntrl=    100127 FMM=F ISym2X=1 I1Cent= 0 IOpClX= 1 NMat=1 NMatS=1 NMatT=0.
 FoFJK:  IHMeth= 1 ICntrl=  100127 DoSepK=F KAlg= 0 I1Cent=           0 FoldK=F
 IRaf=         0 NMat=       1 IRICut=       1 DoRegI=T DoRafI=F ISym2E= 1 IDoP0=0 IntGTp=1.
 FoFCou: FMM=F IPFlag=           0 FMFlag=      100000 FMFlg1=         800
         NFxFlg=           0 DoJE=F BraDBF=F KetDBF=F FulRan=T
         wScrn=  0.000000 ICntrl=    100127 IOpCl=  1 I1Cent=           0 NGrid=           0
         NMat0=    1 NMatS0=      1 NMatT0=    0 NMatD0=    1 NMtDS0=    0 NMtDT0=    0
 Petite list used in FoFCou.
 Leave Link  703 at Mon Mar 11 18:02:30 2019, MaxMem=   524288000 cpu:              14.4 elap:               2.7
 (Enter /home/ubuntu/g16/l716.exe)
 Dipole        = 0.00000000D+00 0.00000000D+00-3.44199747D-01
 Polarizability= 2.15548125D+01-1.13278174D-11 2.15548125D+01
                -1.45628994D-11-5.98511155D-12 2.42791844D+01
 Full mass-weighted force constant matrix:
 Low frequencies ---    0.0103    0.0103    0.0173   19.3064   19.3064 2614.2970
 Diagonal vibrational polarizability:
        0.0000000       0.0000000       0.0425229
 Harmonic frequencies (cm**-1), IR intensities (KM/Mole), Raman scattering
 activities (A**4/AMU), depolarization ratios for plane and unpolarized
 incident light, reduced masses (AMU), force constants (mDyne/A),
 and normal coordinates:
                      1
                     SG
 Frequencies --   2614.2970
 Red. masses --      1.0205
 Frc consts  --      4.1095
 IR Inten    --     10.7994
  Atom  AN      X      Y      Z
     1  35    -0.00  -0.00  -0.01
     2   1    -0.00  -0.00   1.00

 -------------------
 - Thermochemistry -
 -------------------
 Temperature   298.150 Kelvin.  Pressure   1.00000 Atm.
 Atom     1 has atomic number 35 and mass  78.91834
 Atom     2 has atomic number  1 and mass   1.00783
 Molecular mass:    79.92616 amu.
 Principal axes and moments of inertia in atomic units:
                           1         2         3
     Eigenvalues --     0.00000   7.28846   7.28846
           X            0.00000  -0.00000   1.00000
           Y            0.00000   1.00000   0.00000
           Z            1.00000   0.00000   0.00000
 This molecule is a prolate symmetric top.
 Rotational symmetry number  1.
 Rotational temperature (Kelvin)     11.88371
 Rotational constant (GHZ):         247.616226
 Zero-point vibrational energy      15637.0 (Joules/Mol)
                                    3.73733 (Kcal/Mol)
 Vibrational temperatures:   3761.39
          (Kelvin)
 
 Zero-point correction=                           0.005956 (Hartree/Particle)
 Thermal correction to Energy=                    0.008316
 Thermal correction to Enthalpy=                  0.009260
 Thermal correction to Gibbs Free Energy=        -0.013280
 Sum of electronic and zero-point Energies=          -2574.757242
 Sum of electronic and thermal Energies=             -2574.754882
 Sum of electronic and thermal Enthalpies=           -2574.753937
 Sum of electronic and thermal Free Energies=        -2574.776478
 
                     E (Thermal)             CV                S
                      KCal/Mol        Cal/Mol-Kelvin    Cal/Mol-Kelvin
 Total                    5.219              4.969             47.441
 Electronic               0.000              0.000              0.000
 Translational            0.889              2.981             39.050
 Rotational               0.592              1.987              8.391
 Vibrational              3.737              0.001              0.000
                       Q            Log10(Q)             Ln(Q)
 Total Bot       0.128379D+07          6.108493         14.065325
 Total V=0       0.704647D+09          8.847972         20.373208
 Vib (Bot)       0.182189D-02         -2.739477         -6.307879
 Vib (V=0)       0.100000D+01          0.000001          0.000003
 Electronic      0.100000D+01          0.000000          0.000000
 Translational   0.280858D+08          7.448487         17.150776
 Rotational      0.250890D+02          1.399483          3.222429
 ***** Axes restored to original set *****
 -------------------------------------------------------------------
 Center     Atomic                   Forces (Hartrees/Bohr)
 Number     Number              X              Y              Z
 -------------------------------------------------------------------
      1       35           0.000039998   -0.000000000   -0.000000000
      2        1          -0.000039998   -0.000000000   -0.000000000
 -------------------------------------------------------------------
 Cartesian Forces:  Max     0.000039998 RMS     0.000023093
 Force constants in Cartesian coordinates: 
                1             2             3             4             5 
      1  0.257380D+00
      2  0.000000D+00  0.140371D-04
      3  0.000000D+00  0.000000D+00  0.140371D-04
      4 -0.257380D+00  0.000000D+00  0.000000D+00  0.257380D+00
      5  0.000000D+00 -0.140368D-04  0.000000D+00  0.000000D+00  0.140368D-04
      6  0.000000D+00  0.000000D+00 -0.140368D-04  0.000000D+00  0.000000D+00
                6 
      6  0.140368D-04
 FormGI is forming the generalized inverse of G from B-inverse, IUseBI=4.
 Force constants in internal coordinates: 
                1 
      1  0.257380D+00
 Leave Link  716 at Mon Mar 11 18:02:30 2019, MaxMem=   524288000 cpu:               0.5 elap:               0.1
 (Enter /home/ubuntu/g16/l103.exe)

 GradGradGradGradGradGradGradGradGradGradGradGradGradGradGradGradGradGrad
 Berny optimization.
 Red2BG is reusing G-inverse.
 Internal  Forces:  Max     0.000039998 RMS     0.000039998
 Search for a local minimum.
 Step number   1 out of a maximum of    2
 All quantities printed in internal units (Hartrees-Bohrs-Radians)
 Second derivative matrix not updated -- analytic derivatives used.
 The second derivative matrix:
                          R1
           R1           0.25738
 ITU=  0
     Eigenvalues ---    0.25738
 Angle between quadratic step and forces=   0.00 degrees.
 Linear search not attempted -- first point.
 Iteration  1 RMS(Cart)=  0.00010989 RMS(Int)=  0.00000000
 Iteration  2 RMS(Cart)=  0.00000000 RMS(Int)=  0.00000000
 ITry= 1 IFail=0 DXMaxC= 7.77D-05 DCOld= 1.00D+10 DXMaxT= 3.00D-01 DXLimC= 3.00D+00 Rises=F
 ClnCor:  largest displacement from symmetrization is 0.00D+00 for atom     0.
 Variable       Old X    -DE/DX   Delta X   Delta X   Delta X     New X
                                 (Linear)    (Quad)   (Total)
    R1        2.70633   0.00004   0.00000   0.00016   0.00016   2.70649
         Item               Value     Threshold  Converged?
 Maximum Force            0.000040     0.000450     YES
 RMS     Force            0.000040     0.000300     YES
 Maximum Displacement     0.000078     0.001800     YES
 RMS     Displacement     0.000110     0.001200     YES
 Predicted change in Energy=-3.107919D-09
 Optimization completed.
    -- Stationary point found.
                           ----------------------------
                           !   Optimized Parameters   !
                           ! (Angstroms and Degrees)  !
 --------------------------                            --------------------------
 ! Name  Definition              Value          Derivative Info.                !
 --------------------------------------------------------------------------------
 ! R1    R(1,2)                  1.4321         -DE/DX =    0.0                 !
 --------------------------------------------------------------------------------
 GradGradGradGradGradGradGradGradGradGradGradGradGradGradGradGradGradGrad

 Leave Link  103 at Mon Mar 11 18:02:31 2019, MaxMem=   524288000 cpu:               0.6 elap:               0.1
 (Enter /home/ubuntu/g16/l9999.exe)

 ----------------------------------------------------------------------

 Electric dipole moment (input orientation):
 (Debye = 10**-18 statcoulomb cm , SI units = C m)
                  (au)            (Debye)         (10**-30 SI)
   Tot        0.344200D+00      0.874868D+00      0.291825D+01
   x         -0.344200D+00     -0.874868D+00     -0.291825D+01
   y          0.000000D+00      0.000000D+00      0.000000D+00
   z          0.000000D+00      0.000000D+00      0.000000D+00

 Dipole polarizability, Alpha (input orientation).
 (esu units = cm**3 , SI units = C**2 m**2 J**-1)
 Alpha(0;0):
               (au)            (10**-24 esu)      (10**-40 SI)
   iso        0.224629D+02      0.332866D+01      0.370364D+01
   aniso      0.272437D+01      0.403710D+00      0.449188D+00
   xx         0.242792D+02      0.359780D+01      0.400310D+01
   yx         0.000000D+00      0.000000D+00      0.000000D+00
   yy         0.215548D+02      0.319409D+01      0.355391D+01
   zx         0.000000D+00      0.000000D+00      0.000000D+00
   zy         0.000000D+00      0.000000D+00      0.000000D+00
   zz         0.215548D+02      0.319409D+01      0.355391D+01

 ----------------------------------------------------------------------

 Dipole orientation:
    35          0.00755890         -0.99720848          1.28300260
     1          0.00755890         -0.99720848          3.98933329

 Electric dipole moment (dipole orientation):
 (Debye = 10**-18 statcoulomb cm , SI units = C m)
                  (au)            (Debye)         (10**-30 SI)
   Tot        0.344200D+00      0.874868D+00      0.291825D+01
   x          0.000000D+00      0.000000D+00      0.000000D+00
   y          0.000000D+00      0.000000D+00      0.000000D+00
   z          0.344200D+00      0.874868D+00      0.291825D+01

 Dipole polarizability, Alpha (dipole orientation).
 (esu units = cm**3 , SI units = C**2 m**2 J**-1)
 Alpha(0;0):
               (au)            (10**-24 esu)      (10**-40 SI)
   iso        0.224629D+02      0.332866D+01      0.370364D+01
   aniso      0.272437D+01      0.403710D+00      0.449188D+00
   xx         0.215548D+02      0.319409D+01      0.355391D+01
   yx         0.000000D+00      0.000000D+00      0.000000D+00
   yy         0.215548D+02      0.319409D+01      0.355391D+01
   zx         0.000000D+00      0.000000D+00      0.000000D+00
   zy         0.000000D+00      0.000000D+00      0.000000D+00
   zz         0.242792D+02      0.359780D+01      0.400310D+01

 ----------------------------------------------------------------------
 1\1\GINC-LC06-3-8\Freq\UB3LYP\Aug-CC-pVDZ\Br1H1\UBUNTU\11-Mar-2019\0\\
 #P Geom=AllCheck Guess=TCheck SCRF=Check GenChk UB3LYP/Aug-CC-pVDZ Fre
 q\\HBr_UB3LYP-aug-cc-pVDZ\\0,1\Br,-0.6789357372,-0.5277,0.004\H,-2.111
 0642628,-0.5277,0.004\\Version=ES64L-G16RevA.03\State=1-SG\HF=-2574.76
 3198\S2=0.\S2-1=0.\S2A=0.\RMSD=1.554e-10\RMSF=2.309e-05\ZeroPoint=0.00
 59558\Thermal=0.0083163\Dipole=-0.3441997,0.,0.\DipoleDeriv=-0.1049932
 ,0.,0.,0.,-0.1271916,0.,0.,0.,-0.1271916,0.1049932,0.,0.,0.,0.1271916,
 0.,0.,0.,0.1271916\Polar=24.2791844,0.,21.5548125,0.,0.,21.5548125\Qua
 drupole=2.0752276,-1.0376138,-1.0376138,0.,0.,0.\PG=C*V [C*(H1Br1)]\NI
 mag=0\\0.25738037,0.,0.00001404,0.,0.,0.00001404,-0.25738037,0.,0.,0.2
 5738037,0.,-0.00001404,0.,0.,0.00001404,0.,0.,-0.00001404,0.,0.,0.0000
 1404\\-0.00004000,0.,0.,0.00004000,0.,0.\\\@


 FIREWORKS ENDED
 AND SPECTATORS GONE AWAY....
 AH, HOW VAST AND DARK
                     SHIKI
 Job cpu time:       0 days  0 hours  2 minutes 10.2 seconds.
 Elapsed time:       0 days  0 hours  0 minutes 38.7 seconds.
 File lengths (MBytes):  RWF=      6 Int=      0 D2E=      0 Chk=      1 Scr=      1
 Normal termination of Gaussian 16 at Mon Mar 11 18:02:31 2019.
