 Entering Gaussian System, Link 0=/home/ubuntu/g16/g16
 Input=HCl_UB3LYP-aug-cc-pVDZ-Opt.gjf
 Output=HCl_UB3LYP-aug-cc-pVDZ-Opt.log
 Initial command:
 /home/ubuntu/g16/l1.exe "/home/ubuntu/g16/Gau-17706.inp" -scrdir="/home/ubuntu/g16/"
 Entering Link 1 = /home/ubuntu/g16/l1.exe PID=     17708.
  
 Copyright (c) 1988,1990,1992,1993,1995,1998,2003,2009,2016,
            Gaussian, Inc.  All Rights Reserved.
  
 This is part of the Gaussian(R) 16 program.  It is based on
 the Gaussian(R) 09 system (copyright 2009, Gaussian, Inc.),
 the Gaussian(R) 03 system (copyright 2003, Gaussian, Inc.),
 the Gaussian(R) 98 system (copyright 1998, Gaussian, Inc.),
 the Gaussian(R) 94 system (copyright 1995, Gaussian, Inc.),
 the Gaussian 92(TM) system (copyright 1992, Gaussian, Inc.),
 the Gaussian 90(TM) system (copyright 1990, Gaussian, Inc.),
 the Gaussian 88(TM) system (copyright 1988, Gaussian, Inc.),
 the Gaussian 86(TM) system (copyright 1986, Carnegie Mellon
 University), and the Gaussian 82(TM) system (copyright 1983,
 Carnegie Mellon University). Gaussian is a federally registered
 trademark of Gaussian, Inc.
  
 This software contains proprietary and confidential information,
 including trade secrets, belonging to Gaussian, Inc.
  
 This software is provided under written license and may be
 used, copied, transmitted, or stored only in accord with that
 written license.
  
 The following legend is applicable only to US Government
 contracts under FAR:
  
                    RESTRICTED RIGHTS LEGEND
  
 Use, reproduction and disclosure by the US Government is
 subject to restrictions as set forth in subparagraphs (a)
 and (c) of the Commercial Computer Software - Restricted
 Rights clause in FAR 52.227-19.
  
 Gaussian, Inc.
 340 Quinnipiac St., Bldg. 40, Wallingford CT 06492
  
  
 ---------------------------------------------------------------
 Warning -- This program may not be used in any manner that
 competes with the business of Gaussian, Inc. or will provide
 assistance to any competitor of Gaussian, Inc.  The licensee
 of this program is prohibited from giving any competitor of
 Gaussian, Inc. access to this program.  By using this program,
 the user acknowledges that Gaussian, Inc. is engaged in the
 business of creating and licensing software in the field of
 computational chemistry and represents and warrants to the
 licensee that it is not a competitor of Gaussian, Inc. and that
 it will not use this program in any manner prohibited above.
 ---------------------------------------------------------------
  

 Cite this work as:
 Gaussian 16, Revision A.03,
 M. J. Frisch, G. W. Trucks, H. B. Schlegel, G. E. Scuseria, 
 M. A. Robb, J. R. Cheeseman, G. Scalmani, V. Barone, 
 G. A. Petersson, H. Nakatsuji, X. Li, M. Caricato, A. V. Marenich, 
 J. Bloino, B. G. Janesko, R. Gomperts, B. Mennucci, H. P. Hratchian, 
 J. V. Ortiz, A. F. Izmaylov, J. L. Sonnenberg, D. Williams-Young, 
 F. Ding, F. Lipparini, F. Egidi, J. Goings, B. Peng, A. Petrone, 
 T. Henderson, D. Ranasinghe, V. G. Zakrzewski, J. Gao, N. Rega, 
 G. Zheng, W. Liang, M. Hada, M. Ehara, K. Toyota, R. Fukuda, 
 J. Hasegawa, M. Ishida, T. Nakajima, Y. Honda, O. Kitao, H. Nakai, 
 T. Vreven, K. Throssell, J. A. Montgomery, Jr., J. E. Peralta, 
 F. Ogliaro, M. J. Bearpark, J. J. Heyd, E. N. Brothers, K. N. Kudin, 
 V. N. Staroverov, T. A. Keith, R. Kobayashi, J. Normand, 
 K. Raghavachari, A. P. Rendell, J. C. Burant, S. S. Iyengar, 
 J. Tomasi, M. Cossi, J. M. Millam, M. Klene, C. Adamo, R. Cammi, 
 J. W. Ochterski, R. L. Martin, K. Morokuma, O. Farkas, 
 J. B. Foresman, and D. J. Fox, Gaussian, Inc., Wallingford CT, 2016.
 
 ******************************************
 Gaussian 16:  ES64L-G16RevA.03 25-Dec-2016
                 1-Aug-2020 
 ******************************************
 %chk=HCl_UB3LYP-aug-cc-pVDZ-Opt.chk
 %mem=500MW
 %nproc=7
 Will use up to    7 processors via shared memory.
 ----------------------------------------------------------------------
 #p opt=(maxcycles=777) freq ub3lyp/aug-cc-pVDZ pop=(Bonding,AllOrbital
 s,mk,no,nboread)
 ----------------------------------------------------------------------
 1/6=777,18=20,19=15,26=3,38=1/1,3;
 2/9=110,12=2,17=6,18=5,40=1/2;
 3/5=16,7=10,11=2,25=1,30=1,71=1,74=-5,116=2/1,2,3;
 4//1;
 5/5=2,38=5/2;
 6/7=2,8=2,9=2,10=2,15=8,20=1,22=-1,27=20,28=1,31=1,40=2,96=-1/1,2,7;
 7//1,2,3,16;
 1/6=777,18=20,19=15,26=3/3(2);
 2/9=110/2;
 99//99;
 2/9=110/2;
 3/5=16,7=10,11=2,25=1,30=1,71=1,74=-5,116=2/1,2,3;
 4/5=5,16=3,69=1/1;
 5/5=2,38=5/2;
 7//1,2,3,16;
 1/6=777,18=20,19=15,26=3/3(-5);
 2/9=110/2;
 6/7=2,8=2,9=2,10=2,15=8,19=2,20=1,22=-1,27=20,28=1,31=1,40=2,96=-1/1,2,7;
 99/9=1/99;
 Leave Link    1 at Sat Aug  1 14:41:55 2020, MaxMem=   524288000 cpu:               0.2 elap:               0.0
 (Enter /home/ubuntu/g16/l101.exe)
 ----------------------
 HCl_UB3LYP-aug-cc-pVDZ
 ----------------------
 Symbolic Z-matrix:
 Charge =  0 Multiplicity = 1
 Cl                   -0.74756  -0.5277    0.004 
 H                    -2.04244  -0.5277    0.004 
 
 ITRead=  0  0
 MicOpt= -1 -1
 NAtoms=      2 NQM=        2 NQMF=       0 NMMI=      0 NMMIF=      0
                NMic=       0 NMicF=      0.
                    Isotopes and Nuclear Properties:
 (Nuclear quadrupole moments (NQMom) in fm**2, nuclear magnetic moments (NMagM)
  in nuclear magnetons)

  Atom         1           2
 IAtWgt=          35           1
 AtmWgt=  34.9688527   1.0078250
 NucSpn=           3           1
 AtZEff=  -0.0000000  -0.0000000
 NQMom=   -8.1650000   0.0000000
 NMagM=    0.8218740   2.7928460
 AtZNuc=  17.0000000   1.0000000
 Leave Link  101 at Sat Aug  1 14:41:55 2020, MaxMem=   524288000 cpu:               0.6 elap:               0.1
 (Enter /home/ubuntu/g16/l103.exe)

 GradGradGradGradGradGradGradGradGradGradGradGradGradGradGradGradGradGrad
 Berny optimization.
 Initialization pass.
                           ----------------------------
                           !    Initial Parameters    !
                           ! (Angstroms and Degrees)  !
 --------------------------                            --------------------------
 ! Name  Definition              Value          Derivative Info.                !
 --------------------------------------------------------------------------------
 ! R1    R(1,2)                  1.2949         estimate D2E/DX2                !
 --------------------------------------------------------------------------------
 Trust Radius=3.00D-01 FncErr=1.00D-07 GrdErr=1.00D-06 EigMax=2.50D+02 EigMin=1.00D-04
 Number of steps in this run=    100 maximum allowed number of steps=    100.
 GradGradGradGradGradGradGradGradGradGradGradGradGradGradGradGradGradGrad

 Leave Link  103 at Sat Aug  1 14:41:55 2020, MaxMem=   524288000 cpu:               0.0 elap:               0.0
 (Enter /home/ubuntu/g16/l202.exe)
                          Input orientation:                          
 ---------------------------------------------------------------------
 Center     Atomic      Atomic             Coordinates (Angstroms)
 Number     Number       Type             X           Y           Z
 ---------------------------------------------------------------------
      1         17           0       -0.747560   -0.527700    0.004000
      2          1           0       -2.042440   -0.527700    0.004000
 ---------------------------------------------------------------------
 Stoichiometry    ClH
 Framework group  C*V[C*(HCl)]
 Deg. of freedom     1
 Full point group                 C*V     NOp   4
 Largest Abelian subgroup         C2V     NOp   4
 Largest concise Abelian subgroup C1      NOp   1
                         Standard orientation:                         
 ---------------------------------------------------------------------
 Center     Atomic      Atomic             Coordinates (Angstroms)
 Number     Number       Type             X           Y           Z
 ---------------------------------------------------------------------
      1         17           0        0.000000    0.000000    0.071938
      2          1           0        0.000000    0.000000   -1.222942
 ---------------------------------------------------------------------
 Rotational constants (GHZ):           0.0000000         307.6895047         307.6895047
 Leave Link  202 at Sat Aug  1 14:41:55 2020, MaxMem=   524288000 cpu:               0.1 elap:               0.0
 (Enter /home/ubuntu/g16/l301.exe)
 Standard basis: Aug-CC-pVDZ (5D, 7F)
 Ernie: Thresh=  0.10000D-02 Tol=  0.10000D-05 Strict=F.
 Ernie:  10 primitive shells out of 60 were deleted.
 There are    20 symmetry adapted cartesian basis functions of A1  symmetry.
 There are     2 symmetry adapted cartesian basis functions of A2  symmetry.
 There are     8 symmetry adapted cartesian basis functions of B1  symmetry.
 There are     8 symmetry adapted cartesian basis functions of B2  symmetry.
 There are    18 symmetry adapted basis functions of A1  symmetry.
 There are     2 symmetry adapted basis functions of A2  symmetry.
 There are     8 symmetry adapted basis functions of B1  symmetry.
 There are     8 symmetry adapted basis functions of B2  symmetry.
    36 basis functions,    92 primitive gaussians,    38 cartesian basis functions
     9 alpha electrons        9 beta electrons
       nuclear repulsion energy         6.9473716372 Hartrees.
 IExCor=  402 DFT=T Ex+Corr=B3LYP ExCW=0 ScaHFX=  0.200000
 ScaDFX=  0.800000  0.720000  1.000000  0.810000 ScalE2=  1.000000  1.000000
 IRadAn=      5 IRanWt=     -1 IRanGd=            0 ICorTp=0 IEmpDi=  4
 NAtoms=    2 NActive=    2 NUniq=    2 SFac= 1.00D+00 NAtFMM=   60 NAOKFM=F Big=F
 Integral buffers will be    131072 words long.
 Raffenetti 2 integral format.
 Two-electron integral symmetry is turned on.
 Leave Link  301 at Sat Aug  1 14:41:55 2020, MaxMem=   524288000 cpu:               0.2 elap:               0.0
 (Enter /home/ubuntu/g16/l302.exe)
 NPDir=0 NMtPBC=     1 NCelOv=     1 NCel=       1 NClECP=     1 NCelD=      1
         NCelK=      1 NCelE2=     1 NClLst=     1 CellRange=     0.0.
 One-electron integrals computed using PRISM.
 One-electron integral symmetry used in STVInt
 NBasis=    36 RedAO= T EigKep=  2.39D-03  NBF=    18     2     8     8
 NBsUse=    36 1.00D-06 EigRej= -1.00D+00 NBFU=    18     2     8     8
 Precomputing XC quadrature grid using
 IXCGrd= 4 IRadAn=           5 IRanWt=          -1 IRanGd=           0 AccXCQ= 0.00D+00.
 Generated NRdTot=       0 NPtTot=           0 NUsed=           0 NTot=          32
 NSgBfM=    38    38    38    38    38 MxSgAt=     2 MxSgA2=     2.
 Leave Link  302 at Sat Aug  1 14:41:55 2020, MaxMem=   524288000 cpu:               1.0 elap:               0.2
 (Enter /home/ubuntu/g16/l303.exe)
 DipDrv:  MaxL=1.
 Leave Link  303 at Sat Aug  1 14:41:55 2020, MaxMem=   524288000 cpu:               0.1 elap:               0.0
 (Enter /home/ubuntu/g16/l401.exe)
 ExpMin= 2.97D-02 ExpMax= 1.28D+05 ExpMxC= 1.24D+03 IAcc=3 IRadAn=         5 AccDes= 0.00D+00
 Harris functional with IExCor=  402 and IRadAn=       5 diagonalized for initial guess.
 HarFok:  IExCor=  402 AccDes= 0.00D+00 IRadAn=         5 IDoV= 1 UseB2=F ITyADJ=14
 ICtDFT=  3500011 ScaDFX=  1.000000  1.000000  1.000000  1.000000
 FoFCou: FMM=F IPFlag=           0 FMFlag=      100000 FMFlg1=           0
         NFxFlg=           0 DoJE=T BraDBF=F KetDBF=T FulRan=T
         wScrn=  0.000000 ICntrl=       500 IOpCl=  0 I1Cent=   200000004 NGrid=           0
         NMat0=    1 NMatS0=      1 NMatT0=    0 NMatD0=    1 NMtDS0=    0 NMtDT0=    0
 Petite list used in FoFCou.
 Harris En= -460.750484062437    
 JPrj=0 DoOrth=F DoCkMO=F.
 Initial guess orbital symmetries:
 Alpha Orbitals:
       Occupied  (SG) (SG) (SG) (PI) (PI) (SG) (SG) (PI) (PI)
       Virtual   (SG) (SG) (SG) (PI) (PI) (SG) (PI) (PI) (DLTA)
                 (DLTA) (SG) (PI) (PI) (SG) (SG) (PI) (PI) (SG)
                 (DLTA) (DLTA) (PI) (PI) (SG) (SG) (PI) (PI) (SG)
 Beta  Orbitals:
       Occupied  (SG) (SG) (SG) (PI) (PI) (SG) (SG) (PI) (PI)
       Virtual   (SG) (SG) (SG) (PI) (PI) (SG) (PI) (PI) (DLTA)
                 (DLTA) (SG) (PI) (PI) (SG) (SG) (PI) (PI) (SG)
                 (DLTA) (DLTA) (PI) (PI) (SG) (SG) (PI) (PI) (SG)
 The electronic state of the initial guess is 1-SG.
 Initial guess <Sx>= 0.0000 <Sy>= 0.0000 <Sz>= 0.0000 <S**2>=-0.0000 S=-0.0000
 Leave Link  401 at Sat Aug  1 14:41:55 2020, MaxMem=   524288000 cpu:               1.5 elap:               0.2
 (Enter /home/ubuntu/g16/l502.exe)
 Keep R1 and R2 ints in memory in symmetry-blocked form, NReq=6265178.
 FoFCou: FMM=F IPFlag=           0 FMFlag=           0 FMFlg1=           0
         NFxFlg=           0 DoJE=F BraDBF=F KetDBF=F FulRan=T
         wScrn=  0.000000 ICntrl=       600 IOpCl=  0 I1Cent=           0 NGrid=           0
         NMat0=    1 NMatS0=    666 NMatT0=    0 NMatD0=    1 NMtDS0=    0 NMtDT0=    0
 Petite list used in FoFCou.
 UHF open shell SCF:
 Using DIIS extrapolation, IDIIS=  1040.
 NGot=   524288000 LenX=   524159088 LenY=   524157203
 Requested convergence on RMS density matrix=1.00D-08 within 128 cycles.
 Requested convergence on MAX density matrix=1.00D-06.
 Requested convergence on             energy=1.00D-06.
 No special actions if energy rises.

 Cycle   1  Pass 1  IDiag  1:
 E= -460.826364458320    
 DIIS: error= 7.30D-03 at cycle   1 NSaved=   1.
 NSaved= 1 IEnMin= 1 EnMin= -460.826364458320     IErMin= 1 ErrMin= 7.30D-03
 ErrMax= 7.30D-03  0.00D+00 EMaxC= 1.00D-01 BMatC= 1.53D-02 BMatP= 1.53D-02
 IDIUse=3 WtCom= 9.27D-01 WtEn= 7.30D-02
 Coeff-Com:  0.100D+01
 Coeff-En:   0.100D+01
 Coeff:      0.100D+01
 Gap=     0.310 Goal=   None    Shift=    0.000
 Gap=     0.310 Goal=   None    Shift=    0.000
 GapD=    0.310 DampG=1.000 DampE=1.000 DampFc=1.0000 IDamp=-1.
 RMSDP=1.38D-03 MaxDP=1.31D-02              OVMax= 1.27D-02

 Cycle   2  Pass 1  IDiag  1:
 E= -460.827645308323     Delta-E=       -0.001280850003 Rises=F Damp=F
 DIIS: error= 8.18D-04 at cycle   2 NSaved=   2.
 NSaved= 2 IEnMin= 2 EnMin= -460.827645308323     IErMin= 2 ErrMin= 8.18D-04
 ErrMax= 8.18D-04  0.00D+00 EMaxC= 1.00D-01 BMatC= 2.53D-04 BMatP= 1.53D-02
 IDIUse=3 WtCom= 9.92D-01 WtEn= 8.18D-03
 Coeff-Com:  0.832D-01 0.917D+00
 Coeff-En:   0.000D+00 0.100D+01
 Coeff:      0.825D-01 0.918D+00
 Gap=     0.308 Goal=   None    Shift=    0.000
 Gap=     0.308 Goal=   None    Shift=    0.000
 RMSDP=3.70D-04 MaxDP=4.39D-03 DE=-1.28D-03 OVMax= 3.51D-03

 Cycle   3  Pass 1  IDiag  1:
 E= -460.827687311717     Delta-E=       -0.000042003394 Rises=F Damp=F
 DIIS: error= 4.44D-04 at cycle   3 NSaved=   3.
 NSaved= 3 IEnMin= 3 EnMin= -460.827687311717     IErMin= 3 ErrMin= 4.44D-04
 ErrMax= 4.44D-04  0.00D+00 EMaxC= 1.00D-01 BMatC= 5.45D-05 BMatP= 2.53D-04
 IDIUse=3 WtCom= 9.96D-01 WtEn= 4.44D-03
 Coeff-Com:  0.186D-01 0.353D+00 0.629D+00
 Coeff-En:   0.000D+00 0.653D-01 0.935D+00
 Coeff:      0.185D-01 0.351D+00 0.630D+00
 Gap=     0.309 Goal=   None    Shift=    0.000
 Gap=     0.309 Goal=   None    Shift=    0.000
 RMSDP=1.08D-04 MaxDP=1.59D-03 DE=-4.20D-05 OVMax= 1.52D-03

 Cycle   4  Pass 1  IDiag  1:
 E= -460.827702839515     Delta-E=       -0.000015527798 Rises=F Damp=F
 DIIS: error= 6.43D-05 at cycle   4 NSaved=   4.
 NSaved= 4 IEnMin= 4 EnMin= -460.827702839515     IErMin= 4 ErrMin= 6.43D-05
 ErrMax= 6.43D-05  0.00D+00 EMaxC= 1.00D-01 BMatC= 5.97D-07 BMatP= 5.45D-05
 IDIUse=1 WtCom= 1.00D+00 WtEn= 0.00D+00
 Coeff-Com:  0.257D-03 0.280D-01 0.128D+00 0.844D+00
 Coeff:      0.257D-03 0.280D-01 0.128D+00 0.844D+00
 Gap=     0.309 Goal=   None    Shift=    0.000
 Gap=     0.309 Goal=   None    Shift=    0.000
 RMSDP=1.11D-05 MaxDP=1.49D-04 DE=-1.55D-05 OVMax= 1.49D-04

 Cycle   5  Pass 1  IDiag  1:
 E= -460.827702996846     Delta-E=       -0.000000157331 Rises=F Damp=F
 DIIS: error= 1.43D-05 at cycle   5 NSaved=   5.
 NSaved= 5 IEnMin= 5 EnMin= -460.827702996846     IErMin= 5 ErrMin= 1.43D-05
 ErrMax= 1.43D-05  0.00D+00 EMaxC= 1.00D-01 BMatC= 2.65D-08 BMatP= 5.97D-07
 IDIUse=1 WtCom= 1.00D+00 WtEn= 0.00D+00
 Coeff-Com: -0.781D-04 0.981D-02 0.504D-01 0.332D+00 0.608D+00
 Coeff:     -0.781D-04 0.981D-02 0.504D-01 0.332D+00 0.608D+00
 Gap=     0.309 Goal=   None    Shift=    0.000
 Gap=     0.309 Goal=   None    Shift=    0.000
 RMSDP=2.66D-06 MaxDP=3.34D-05 DE=-1.57D-07 OVMax= 5.52D-05

 Cycle   6  Pass 1  IDiag  1:
 E= -460.827703005223     Delta-E=       -0.000000008377 Rises=F Damp=F
 DIIS: error= 2.97D-06 at cycle   6 NSaved=   6.
 NSaved= 6 IEnMin= 6 EnMin= -460.827703005223     IErMin= 6 ErrMin= 2.97D-06
 ErrMax= 2.97D-06  0.00D+00 EMaxC= 1.00D-01 BMatC= 2.11D-09 BMatP= 2.65D-08
 IDIUse=1 WtCom= 1.00D+00 WtEn= 0.00D+00
 Coeff-Com: -0.106D-03-0.136D-02 0.145D-02 0.125D-01 0.213D+00 0.774D+00
 Coeff:     -0.106D-03-0.136D-02 0.145D-02 0.125D-01 0.213D+00 0.774D+00
 Gap=     0.309 Goal=   None    Shift=    0.000
 Gap=     0.309 Goal=   None    Shift=    0.000
 RMSDP=6.27D-07 MaxDP=9.15D-06 DE=-8.38D-09 OVMax= 9.66D-06

 Cycle   7  Pass 1  IDiag  1:
 E= -460.827703005835     Delta-E=       -0.000000000612 Rises=F Damp=F
 DIIS: error= 4.36D-08 at cycle   7 NSaved=   7.
 NSaved= 7 IEnMin= 7 EnMin= -460.827703005835     IErMin= 7 ErrMin= 4.36D-08
 ErrMax= 4.36D-08  0.00D+00 EMaxC= 1.00D-01 BMatC= 4.51D-13 BMatP= 2.11D-09
 IDIUse=1 WtCom= 1.00D+00 WtEn= 0.00D+00
 Coeff-Com:  0.355D-05-0.884D-05-0.286D-03-0.156D-02-0.832D-02-0.145D-01
 Coeff-Com:  0.102D+01
 Coeff:      0.355D-05-0.884D-05-0.286D-03-0.156D-02-0.832D-02-0.145D-01
 Coeff:      0.102D+01
 Gap=     0.309 Goal=   None    Shift=    0.000
 Gap=     0.309 Goal=   None    Shift=    0.000
 RMSDP=2.08D-08 MaxDP=1.94D-07 DE=-6.12D-10 OVMax= 2.36D-07

 Cycle   8  Pass 1  IDiag  1:
 E= -460.827703005835     Delta-E=       -0.000000000001 Rises=F Damp=F
 DIIS: error= 2.28D-09 at cycle   8 NSaved=   8.
 NSaved= 8 IEnMin= 8 EnMin= -460.827703005835     IErMin= 8 ErrMin= 2.28D-09
 ErrMax= 2.28D-09  0.00D+00 EMaxC= 1.00D-01 BMatC= 5.78D-16 BMatP= 4.51D-13
 IDIUse=1 WtCom= 1.00D+00 WtEn= 0.00D+00
 Coeff-Com: -0.597D-08 0.137D-05 0.512D-05 0.209D-04 0.162D-03-0.256D-03
 Coeff-Com: -0.303D-01 0.103D+01
 Coeff:     -0.597D-08 0.137D-05 0.512D-05 0.209D-04 0.162D-03-0.256D-03
 Coeff:     -0.303D-01 0.103D+01
 Gap=     0.309 Goal=   None    Shift=    0.000
 Gap=     0.309 Goal=   None    Shift=    0.000
 RMSDP=5.72D-10 MaxDP=6.54D-09 DE=-5.68D-13 OVMax= 1.10D-08

 SCF Done:  E(UB3LYP) =  -460.827703006     A.U. after    8 cycles
            NFock=  8  Conv=0.57D-09     -V/T= 2.0022
 <Sx>= 0.0000 <Sy>= 0.0000 <Sz>= 0.0000 <S**2>=-0.0000 S=-0.0000
 <L.S>= 0.000000000000E+00
 KE= 4.598058778777D+02 PE=-1.109477891468D+03 EE= 1.818969389468D+02
 Annihilation of the first spin contaminant:
 S**2 before annihilation    -0.0000,   after     0.0000
 Leave Link  502 at Sat Aug  1 14:41:56 2020, MaxMem=   524288000 cpu:               2.4 elap:               0.4
 (Enter /home/ubuntu/g16/l601.exe)
 Copying SCF densities to generalized density rwf, IOpCl= 1 IROHF=0.

 **********************************************************************

            Population analysis using the SCF density.

 **********************************************************************

 Orbital symmetries:
 Alpha Orbitals:
       Occupied  (SG) (SG) (SG) (PI) (PI) (SG) (SG) (PI) (PI)
       Virtual   (SG) (SG) (SG) (PI) (PI) (SG) (PI) (PI) (DLTA)
                 (DLTA) (SG) (PI) (PI) (SG) (SG) (PI) (PI) (SG)
                 (DLTA) (DLTA) (PI) (PI) (SG) (SG) (PI) (PI) (SG)
 Beta  Orbitals:
       Occupied  (SG) (SG) (SG) (PI) (PI) (SG) (SG) (PI) (PI)
       Virtual   (SG) (SG) (SG) (PI) (PI) (SG) (PI) (PI) (DLTA)
                 (DLTA) (SG) (PI) (PI) (SG) (SG) (PI) (PI) (SG)
                 (DLTA) (DLTA) (PI) (PI) (SG) (SG) (PI) (PI) (SG)
 The electronic state is 1-SG.
     Natural Orbital Coefficients:
                           1         2         3         4         5
     Eigenvalues --     2.00000   2.00000   2.00000   2.00000   2.00000
   1 1   Cl 1S         -0.21532   0.19136   0.00000  -0.68694   0.50493
   2        2S         -0.15568  -0.68764  -0.00000   0.52030   0.42637
   3        3S          0.09168   0.41251  -0.00000   0.20398   0.24287
   4        4S          0.08772   0.49509   0.00000   0.11176   0.13761
   5        5S         -0.00053   0.05290   0.00000  -0.00835  -0.01604
   6        6PX         0.00347   0.01006   0.00000   0.05435  -0.02929
   7        6PY        -0.00000   0.00000  -0.16580  -0.00000  -0.00000
   8        6PZ         0.95458  -0.26066  -0.00000  -0.15093   0.15942
   9        7PX        -0.00215  -0.00614   0.00000  -0.28469   0.19009
  10        7PY         0.00000  -0.00000   0.65505   0.00000   0.00000
  11        7PZ        -0.04402   0.23188   0.00000  -0.06186  -0.12404
  12        8PX        -0.00148  -0.00421   0.00000  -0.19184   0.12804
  13        8PY        -0.00000   0.00000   0.44175  -0.00000  -0.00000
  14        8PZ        -0.02443   0.11461   0.00000  -0.00283  -0.02983
  15        9PX        -0.00016  -0.00047   0.00000  -0.02163   0.01444
  16        9PY         0.00000  -0.00000   0.04977  -0.00000   0.00000
  17        9PZ        -0.00052  -0.00148  -0.00000   0.00171   0.00171
  18       10D 0        0.00629  -0.00942  -0.00000   0.01122   0.01785
  19       10D+1        0.00005   0.00014   0.00000   0.00662  -0.00442
  20       10D-1       -0.00000  -0.00000  -0.01521  -0.00000   0.00000
  21       10D+2       -0.00000  -0.00000   0.00000   0.00000  -0.00000
  22       10D-2       -0.00000  -0.00000   0.00000  -0.00000   0.00000
  23       11D 0       -0.00124   0.00100   0.00000  -0.00781  -0.00978
  24       11D+1        0.00003   0.00008   0.00000   0.00340  -0.00226
  25       11D-1        0.00000  -0.00000  -0.00784   0.00000  -0.00000
  26       11D+2        0.00000  -0.00000  -0.00000  -0.00000   0.00000
  27       11D-2        0.00000   0.00000   0.00000   0.00000  -0.00000
  28 2   H  1S          0.06785  -0.07687  -0.00000   0.08943   0.15220
  29        2S          0.00665  -0.09663  -0.00000   0.03828   0.05660
  30        3S          0.00192  -0.00728  -0.00000   0.00394   0.00673
  31        4PX        -0.00007  -0.00021   0.00000  -0.00940   0.00628
  32        4PY         0.00000  -0.00000   0.02165  -0.00000  -0.00000
  33        4PZ         0.00884   0.00418  -0.00000   0.00989   0.01640
  34        5PX        -0.00007  -0.00021   0.00000  -0.00996   0.00665
  35        5PY         0.00000  -0.00000   0.02291   0.00000   0.00000
  36        5PZ        -0.00246  -0.01409  -0.00000   0.01115   0.01200
                           6         7         8         9        10
     Eigenvalues --     2.00000   2.00000   2.00000   2.00000   0.00000
   1 1   Cl 1S         -0.52373  -0.04904   0.02801  -0.00000   0.01282
   2        2S          0.10855   0.45797   0.00171   0.00000  -0.00603
   3        3S          0.02535  -0.02502  -0.00748   0.00000   0.14371
   4        4S          0.01422   0.05211  -0.00592  -0.00000  -0.01456
   5        5S          0.00101   0.06846   0.00033  -0.00000  -0.13103
   6        6PX        -0.04099  -0.01232   1.03073   0.00000  -0.00160
   7        6PY         0.00000   0.00000   0.00000   1.02013   0.10777
   8        6PZ        -0.13150   0.01108   0.00673   0.00000  -0.03314
   9        7PX         0.54810   0.00706  -0.12251   0.00000   0.01297
  10        7PY        -0.00000  -0.00000   0.00000  -0.06012  -0.40855
  11        7PZ         0.00825   0.45100   0.00334  -0.00000   0.14628
  12        8PX         0.36882   0.00485  -0.09092   0.00000  -0.09331
  13        8PY         0.00000   0.00000  -0.00000  -0.04889   0.22084
  14        8PZ         0.00781   0.18980   0.00084  -0.00000  -0.08844
  15        9PX         0.04164   0.00054  -0.00944   0.00000  -0.05702
  16        9PY        -0.00000   0.00000  -0.00000  -0.00470  -0.42562
  17        9PZ         0.00028  -0.00043  -0.00002   0.00000  -0.23626
  18       10D 0       -0.00002  -0.04181  -0.00051   0.00000   0.16207
  19       10D+1       -0.01276  -0.00016   0.00256   0.00000  -0.02259
  20       10D-1       -0.00000  -0.00000   0.00000   0.00111  -0.05712
  21       10D+2        0.00000   0.00000   0.00000  -0.00000   0.00001
  22       10D-2        0.00000   0.00000   0.00000   0.00000   0.00074
  23       11D 0       -0.00076   0.01188   0.00024  -0.00000  -0.08699
  24       11D+1       -0.00650  -0.00009   0.00207   0.00000   0.11621
  25       11D-1        0.00000  -0.00000  -0.00000   0.00132   0.60610
  26       11D+2       -0.00000  -0.00000   0.00000   0.00000  -0.00003
  27       11D-2       -0.00000  -0.00000  -0.00000   0.00000  -0.00078
  28 2   H  1S         -0.00314  -0.37093  -0.00443   0.00000  -0.15378
  29        2S          0.00074  -0.13912  -0.00112   0.00000   0.05938
  30        3S         -0.00015  -0.01953  -0.00019   0.00000  -0.08624
  31        4PX         0.01808   0.00024  -0.00441   0.00000  -0.03480
  32        4PY        -0.00000   0.00000  -0.00000  -0.00235   0.87631
  33        4PZ        -0.00017  -0.03208  -0.00052   0.00000   0.12283
  34        5PX         0.01920   0.00024  -0.00402   0.00000   0.20826
  35        5PY         0.00000  -0.00000   0.00000  -0.00184   0.32099
  36        5PZ         0.00155  -0.00955  -0.00015   0.00000  -0.02098
                          11        12        13        14        15
     Eigenvalues --     0.00000   0.00000   0.00000   0.00000   0.00000
   1 1   Cl 1S         -0.01112   0.01606   0.00948   0.00879   0.04838
   2        2S         -0.01595   0.00303   0.10746  -0.03877   0.26363
   3        3S         -0.16700   0.19494   0.27129   0.04805   0.98687
   4        4S          0.19869  -0.21815  -1.36135   0.70991  -3.98517
   5        5S          0.16801  -0.47693  -1.04263   0.65462  -3.53237
   6        6PX         0.05930  -0.08737  -0.05999   0.02869   0.04373
   7        6PY        -0.00698  -0.02687   0.01165  -0.06603  -0.02944
   8        6PZ        -0.02461   0.02498   0.03498  -0.08549   0.04381
   9        7PX        -0.30349   0.37297   0.24233  -0.09849  -0.20049
  10        7PY         0.03622   0.13078  -0.05037   0.29515   0.13229
  11        7PZ         0.11633  -0.08356  -0.15294   0.35210  -0.27725
  12        8PX         0.61028  -0.79398  -0.26581   0.23153   0.29307
  13        8PY        -0.09874  -0.33709   0.10538  -0.66637  -0.30122
  14        8PZ        -0.09608   0.34839   1.06556  -0.79447   2.81679
  15        9PX        -0.83854  -0.31875  -0.09786   0.57678  -0.49609
  16        9PY         0.05880   0.12715   0.00206  -0.02699  -0.02244
  17        9PZ        -0.27340  -0.44100   0.30032  -0.23183   0.93050
  18       10D 0        0.20762   0.18315  -0.03651   0.14798   0.00507
  19       10D+1        0.19702  -0.38090  -0.46693   0.14789   0.06310
  20       10D-1       -0.03905  -0.20951   0.10953  -0.52756  -0.21606
  21       10D+2       -0.00013   0.00001   0.00010   0.00024  -0.00083
  22       10D-2        0.10242   0.00623   0.74770   0.23876  -0.33854
  23       11D 0       -0.07000  -0.17741  -0.28425   0.08254  -0.66298
  24       11D+1        0.42176   0.63457  -0.15840  -0.53092  -0.15854
  25       11D-1        0.00861   0.28266  -0.22287   1.11560   0.47243
  26       11D+2       -0.00014  -0.00006   0.00006   0.00005  -0.00005
  27       11D-2       -0.12049   0.00986  -0.67098  -0.19823   0.17606
  28 2   H  1S         -0.09976  -0.14832   0.12563  -0.15491   0.15646
  29        2S         -0.32863   0.25399   1.88413  -1.00902   6.06954
  30        3S          0.18644   0.23092   0.35019  -0.37599   0.46329
  31        4PX         0.59172  -0.57278   0.20994   0.27450   0.13808
  32        4PY        -0.13097  -0.37129   0.06864  -0.26725  -0.08003
  33        4PZ         0.21546   0.15317   0.13238   0.14407  -0.21549
  34        5PX         0.00369   1.28417   0.00005  -0.89742   0.21376
  35        5PY         0.11066   0.41141  -0.13614   0.82356   0.36365
  36        5PZ        -0.11501   0.21312   0.81927  -0.75749   2.91324
                          16        17        18        19        20
     Eigenvalues --     0.00000   0.00000   0.00000   0.00000   0.00000
   1 1   Cl 1S         -0.04445   0.03626  -0.03529   0.00403  -0.02607
   2        2S         -0.31389   0.21600   0.04188  -0.07074  -0.13451
   3        3S         -1.00150   0.75258  -0.38260  -0.07077  -0.51669
   4        4S          4.19103  -2.97180  -0.65993   1.30862   1.39780
   5        5S          3.50415  -2.44373   0.04620  -0.88943   0.56175
   6        6PX        -0.00102  -0.00650  -0.06223   0.07857   0.03616
   7        6PY        -0.01648   0.00037   0.00169   0.01713  -0.00521
   8        6PZ        -0.11078   0.03627  -0.25325   0.01472  -0.01710
   9        7PX         0.04310   0.03627   0.23653  -0.33632  -0.19865
  10        7PY         0.06525   0.00842  -0.00576  -0.07343   0.02333
  11        7PZ         0.50895  -0.13395   0.97323  -0.07331   0.09248
  12        8PX        -0.46125  -0.09164  -0.15795   0.54915   0.46664
  13        8PY        -0.10537  -0.06689   0.00395   0.14492  -0.05095
  14        8PZ        -3.27835   2.04051  -0.18048   0.25255  -0.95643
  15        9PX        -0.26830   0.24741   0.08150  -0.07870  -0.41138
  16        9PY        -0.06253   0.04732   0.01118   0.04384  -0.00876
  17        9PZ        -0.69122   0.75936  -0.25673  -0.09299   0.35417
  18       10D 0       -0.31221  -0.10517  -0.12001  -0.08209   0.55937
  19       10D+1       -0.41414  -0.03287   0.28546   0.08520  -0.10369
  20       10D-1       -0.14531   0.04873   0.01657   0.09624  -0.02427
  21       10D+2       -0.00086  -0.00013  -0.00751  -0.02094  -0.01291
  22       10D-2        0.26701   0.44444   0.05759   0.03637   0.33630
  23       11D 0        0.69744  -0.76703   0.09606  -0.41749   0.48639
  24       11D+1        0.94954   0.57949  -0.35734  -0.33795   0.01464
  25       11D-1        0.35610  -0.13504  -0.04427  -0.25152   0.06308
  26       11D+2       -0.00015   0.00072  -0.00050  -0.00059  -0.00168
  27       11D-2        0.00001  -0.50468  -0.14984   0.16986   0.03322
  28 2   H  1S          0.17092   0.22863   0.78495   1.09739  -0.49911
  29        2S         -6.10786   4.37249  -0.19671  -1.44774  -0.92941
  30        3S         -1.20984   0.27883   0.28153   0.48625  -0.42331
  31        4PX         0.13555  -0.06290  -0.15158   0.00227  -0.41396
  32        4PY         0.02827  -0.04582  -0.01009  -0.03607   0.00678
  33        4PZ        -0.32668   0.28707   0.24418   0.36861  -0.09177
  34        5PX         0.92052  -0.05996  -0.13619  -0.31486   0.10115
  35        5PY         0.12934   0.06910  -0.00484  -0.15675   0.05460
  36        5PZ        -2.56117   1.85834   0.97136  -0.73670  -0.60980
                          21        22        23        24        25
     Eigenvalues --     0.00000   0.00000  -0.00000  -0.00000  -0.00000
   1 1   Cl 1S         -0.10687   0.06060   0.00304   0.02734   0.01000
   2        2S         -0.32266   0.38820   0.02429   0.15627  -0.03248
   3        3S         -1.81084   1.32824   0.07362   0.57154   0.11016
   4        4S          2.68654  -3.38669  -0.21111  -1.34572  -0.08456
   5        5S         -0.55471   3.46072   0.24708   1.29983  -1.39575
   6        6PX        -0.00487   0.02273   0.00173   0.01084   0.01819
   7        6PY         0.00054   0.00563   0.00043   0.00248   0.02136
   8        6PZ         0.07306   0.03966   0.00338   0.01038   0.09531
   9        7PX         0.03445  -0.09008  -0.00687  -0.04517  -0.06052
  10        7PY        -0.00195  -0.02615  -0.00194  -0.01138  -0.09936
  11        7PZ        -0.34967  -0.24895  -0.02040  -0.07346  -0.56922
  12        8PX        -0.09673   0.09335   0.00771   0.05942   0.03550
  13        8PY         0.00203   0.06149   0.00437   0.02616   0.23406
  14        8PZ         0.59818   1.17362   0.09209   0.39659   0.69396
  15        9PX         0.15080  -0.01082   0.00009  -0.01785   0.16750
  16        9PY         0.00302   0.00500   0.00058   0.00279   0.01798
  17        9PZ        -0.64132  -1.47979  -0.11593  -0.52087   0.13789
  18       10D 0       -0.05642  -0.06411  -0.00790  -0.00707   1.18827
  19       10D+1       -0.00206  -0.06088  -0.00343  -0.01860  -0.01835
  20       10D-1        0.00456   0.02061   0.00177   0.00966   0.07503
  21       10D+2        0.03076  -0.36949   0.85101   0.82592  -0.00535
  22       10D-2       -0.03485  -0.01180  -0.00072   0.00654   0.10902
  23       11D 0        0.10162  -0.05340  -0.00294  -0.03031  -0.98613
  24       11D+1       -0.00150   0.03832   0.00074   0.00238   0.00047
  25       11D-1       -0.01231  -0.05393  -0.00466  -0.02536  -0.19858
  26       11D+2        0.02388   0.02720  -1.23073   0.16890  -0.00419
  27       11D-2       -0.05283   0.00948   0.00057   0.01176  -0.08254
  28 2   H  1S         -0.14935   0.68995   0.05188   0.28433  -0.05491
  29        2S          0.02660  -0.15083  -0.01479  -0.10811   1.10383
  30        3S         -0.57751  -2.13754  -0.16495  -0.75597   0.57482
  31        4PX         0.07805  -0.00637  -0.00038  -0.01262   0.05022
  32        4PY        -0.00280  -0.00367  -0.00047  -0.00218  -0.01417
  33        4PZ         0.08232   0.16948   0.01759   0.05549  -1.16140
  34        5PX        -0.06650   0.00351  -0.00168  -0.00429  -0.13462
  35        5PY        -0.00226  -0.06515  -0.00463  -0.02774  -0.24697
  36        5PZ        -0.25157   0.32016   0.01681   0.12208   0.74337
                          26        27        28        29        30
     Eigenvalues --    -0.00000  -0.00000  -0.00000  -0.00000  -0.00000
   1 1   Cl 1S          0.00752  -0.00653  -0.02005   0.01835   0.03029
   2        2S         -0.10248   0.00623  -0.04614   0.31741   0.35750
   3        3S         -0.05126  -0.07834  -0.30781   0.68879   0.89717
   4        4S          0.41604  -0.13062   0.44728  -3.74473  -4.22749
   5        5S          0.79115   0.43376   0.47694  -3.54983  -3.74309
   6        6PX         0.04015  -0.08780   0.01266  -0.10435   0.11776
   7        6PY         0.01022  -0.00569  -0.07556  -0.03279   0.01954
   8        6PZ         0.06460   0.00625   0.13765   0.02402  -0.06100
   9        7PX        -0.12971   0.32623  -0.13470   0.46481  -0.48169
  10        7PY        -0.04413   0.03574   0.33684   0.14416  -0.10008
  11        7PZ        -0.18487   0.05288  -0.53295  -0.26226   0.01128
  12        8PX         0.01585  -0.14535   0.66482  -0.79821   0.53954
  13        8PY         0.08804  -0.12698  -0.71884  -0.29664   0.27503
  14        8PZ        -0.75299  -0.13345   0.12273   3.31293   3.46506
  15        9PX         0.26082   0.05402  -0.33838   0.29130  -0.21216
  16        9PY         0.02439   0.03852  -0.12510  -0.06187  -0.03063
  17        9PZ        -0.88612   0.09112  -0.28288   1.02651   0.78028
  18       10D 0       -0.29614   0.07461  -0.21439   0.15701  -0.27497
  19       10D+1       -0.00112   0.35459  -0.04493  -0.43863   0.08841
  20       10D-1        0.05148   0.02582  -0.28780  -0.12511  -0.00039
  21       10D+2       -0.00342  -0.00409  -0.00139   0.00114  -0.00067
  22       10D-2        0.24744   0.14197   0.09680  -0.22495   0.38357
  23       11D 0        1.27464  -0.57417   0.08554  -0.93319  -0.97624
  24       11D+1        0.06341  -0.51041  -0.25305   0.69405  -0.05286
  25       11D-1       -0.13873  -0.07144   0.82094   0.36884  -0.02324
  26       11D+2       -0.00171   0.00097  -0.00032  -0.00070   0.00028
  27       11D-2        0.25395   0.55419  -0.10064   0.46988   0.00567
  28 2   H  1S         -0.61889  -0.15506   0.19948   0.78124   0.58325
  29        2S         -1.79756   0.44687  -1.12960   5.57860   6.61955
  30        3S          0.15318  -0.57999   0.33476   1.32912   1.08701
  31        4PX         0.21553   0.04611  -0.36591   0.28771  -0.25109
  32        4PY        -0.02224  -0.03711   0.12745   0.06496   0.02482
  33        4PZ        -0.38316   0.17032  -0.27628   0.27133   0.21815
  34        5PX        -0.14279  -0.37630  -0.43636   0.20141   0.19476
  35        5PY        -0.09323   0.13169   0.74307   0.30357  -0.27988
  36        5PZ         0.56312  -0.12791   0.08010   2.27793   2.32013
                          31        32        33        34        35
     Eigenvalues --    -0.00000  -0.00000  -0.00000  -0.00000  -0.00000
   1 1   Cl 1S         -0.00429   0.00003  -0.02485   0.00531  -0.00896
   2        2S         -0.03395   0.00014  -0.01061  -0.00609  -0.00465
   3        3S         -0.10901   0.00072  -0.32946   0.05165  -0.12023
   4        4S          0.22316   0.00020   0.02363  -0.01366  -0.00189
   5        5S          0.22150  -0.00069   0.24745  -0.05249   0.07331
   6        6PX         0.03646  -0.00033   0.18568   0.00060   0.00940
   7        6PY         0.04325   0.03806  -0.05713  -0.22150   0.13078
   8        6PZ        -0.10150   0.00017  -0.03014  -0.01312   0.02727
   9        7PX        -0.20973   0.00128  -0.68559   0.00157  -0.03377
  10        7PY        -0.19780  -0.26600   0.28107   0.81894  -0.53415
  11        7PZ         0.43985  -0.00145   0.19524   0.07926  -0.06891
  12        8PX         0.67633  -0.00146   0.40315  -0.04210   0.01186
  13        8PY         0.43809   0.68079  -0.71314  -0.45012   0.60397
  14        8PZ        -0.56833   0.00228  -0.27551  -0.07269   0.00958
  15        9PX        -0.18799  -0.00045   0.12985  -0.01799   0.00779
  16        9PY         0.03105  -1.36719   0.05869  -0.11068  -0.08776
  17        9PZ        -0.17548  -0.00044   0.20322  -0.10388   0.09555
  18       10D 0       -0.08681  -0.00035   0.13191   0.08701  -0.01590
  19       10D+1       -0.78611   0.00074  -0.26149  -0.01007   0.00281
  20       10D-1        0.06157  -0.16212   0.06633   0.57047   0.76598
  21       10D+2        0.00013  -0.00000  -0.00046   0.00000  -0.00008
  22       10D-2       -0.32433   0.00029  -0.09933  -0.00027  -0.00070
  23       11D 0        0.03948   0.00081  -0.23354  -0.06130  -0.03372
  24       11D+1        0.20177   0.00026   0.15488   0.04914   0.00464
  25       11D-1       -0.29865   0.14098   0.06775  -0.30446   0.09872
  26       11D+2        0.00016  -0.00000   0.00003  -0.00001  -0.00001
  27       11D-2        0.28527  -0.00027   0.09247   0.00025   0.00067
  28 2   H  1S         -0.16433   0.00153  -0.04444  -0.10531   0.00404
  29        2S         -0.21354  -0.00079   0.00126   0.03727  -0.04001
  30        3S         -0.21095   0.00137   0.05659  -0.05896   0.05901
  31        4PX        -0.13535  -0.00026   0.03250  -0.01523   0.00116
  32        4PY        -0.04431  -0.51633  -0.03618   0.24937  -0.14647
  33        4PZ         0.11915  -0.00212   0.21937   0.11080   0.07683
  34        5PX        -0.58372   0.00091   0.31249   0.09355   0.02834
  35        5PY        -0.43181   0.76496   0.70060  -0.59085   0.06410
  36        5PZ        -0.04598  -0.00082   0.09283   0.01560   0.07255
                          36
     Eigenvalues --    -0.00000
   1 1   Cl 1S         -0.01884
   2        2S         -0.01414
   3        3S         -0.26365
   4        4S         -0.01680
   5        5S          0.14414
   6        6PX         0.04773
   7        6PY         0.05827
   8        6PZ         0.05449
   9        7PX        -0.16351
  10        7PY        -0.30378
  11        7PZ        -0.10308
  12        8PX        -0.00295
  13        8PY         0.87830
  14        8PZ        -0.02976
  15        9PX         0.06315
  16        9PY        -0.08963
  17        9PZ         0.16976
  18       10D 0        0.07089
  19       10D+1        0.01860
  20       10D-1       -0.49563
  21       10D+2       -0.00029
  22       10D-2       -0.00005
  23       11D 0       -0.16401
  24       11D+1        0.04756
  25       11D-1        0.12865
  26       11D+2       -0.00007
  27       11D-2        0.00005
  28 2   H  1S         -0.05407
  29        2S         -0.07238
  30        3S          0.11665
  31        4PX         0.00778
  32        4PY         0.06973
  33        4PZ         0.26730
  34        5PX         0.21601
  35        5PY        -0.93673
  36        5PZ         0.18315
          Condensed to atoms (all electrons):
               1          2
     1  Cl  16.739886   0.302124
     2  H    0.302124   0.655866
          Atomic-Atomic Spin Densities.
               1          2
     1  Cl   0.000000  -0.000000
     2  H   -0.000000  -0.000000
 Mulliken charges and spin densities:
               1          2
     1  Cl  -0.042010   0.000000
     2  H    0.042010  -0.000000
 Sum of Mulliken charges =  -0.00000   0.00000
 Mulliken charges and spin densities with hydrogens summed into heavy atoms:
               1          2
     1  Cl  -0.000000   0.000000

 Bonding Mulliken population analysis:
          Bonding Condensed to atoms (all electrons):
               1          2
     1  Cl   0.000000   0.302124
     2  H    0.302124   0.000000
          Bonding Atomic-Atomic Spin Densities.
               1          2
     1  Cl   0.000000  -0.000000
     2  H   -0.000000   0.000000
 Bonding Mulliken charges and spin densities:
               1          2
     1  Cl  16.697876  -0.000000
     2  H    0.697876  -0.000000
 Sum of Bonding Mulliken charges =  17.39575  -0.00000
 Bonding Mulliken charges and spin densities with hydrogens summed into heavy atoms:
               1          2
     1  Cl  17.395752  -0.000000
 Electronic spatial extent (au):  <R**2>=             34.5056
 Charge=             -0.0000 electrons
 Dipole moment (field-independent basis, Debye):
    X=              0.0000    Y=              0.0000    Z=             -1.1538  Tot=              1.1538
 Quadrupole moment (field-independent basis, Debye-Ang):
   XX=            -14.1501   YY=            -14.1501   ZZ=            -10.5049
   XY=              0.0000   XZ=             -0.0000   YZ=              0.0000
 Traceless Quadrupole moment (field-independent basis, Debye-Ang):
   XX=             -1.2151   YY=             -1.2151   ZZ=              2.4301
   XY=              0.0000   XZ=             -0.0000   YZ=              0.0000
 Octapole moment (field-independent basis, Debye-Ang**2):
  XXX=             -0.0000  YYY=              0.0000  ZZZ=             -2.4695  XYY=             -0.0000
  XXY=              0.0000  XXZ=             -0.0338  XZZ=              0.0000  YZZ=              0.0000
  YYZ=             -0.0338  XYZ=              0.0000
 Hexadecapole moment (field-independent basis, Debye-Ang**3):
 XXXX=            -17.2882 YYYY=            -17.2882 ZZZZ=            -14.8846 XXXY=              0.0000
 XXXZ=              0.0000 YYYX=              0.0000 YYYZ=              0.0000 ZZZX=              0.0000
 ZZZY=              0.0000 XXYY=             -5.7627 XXZZ=             -6.1197 YYZZ=             -6.1197
 XXYZ=              0.0000 YYXZ=              0.0000 ZZXY=              0.0000
 N-N= 6.947371637248D+00 E-N=-1.109477891435D+03  KE= 4.598058778777D+02
 Symmetry A1   KE= 3.684299159693D+02
 Symmetry A2   KE=-3.657247278405D-51
 Symmetry B1   KE= 4.568798095418D+01
 Symmetry B2   KE= 4.568798095418D+01
 Symmetry A1   SP=-5.412230034259D-15
 Symmetry A2   SP=-2.917643065942D-52
 Symmetry B1   SP= 7.528388717165D-15
 Symmetry B2   SP=-4.014760553425D-15

 Atomic contributions to Alpha molecular orbitals:
 Alpha occ 1 OE=-101.563 is Cl1-s=1.0000
 Alpha occ 2 OE=-9.480 is Cl1-s=0.9927
 Alpha occ 3 OE=-7.242 is Cl1-p=0.9997
 Alpha occ 4 OE=-7.233 is Cl1-p=1.0000
 Alpha occ 5 OE=-7.233 is Cl1-p=1.0000
 Alpha occ 6 OE=-0.851 is Cl1-s=0.8633 H2-s=0.1127
 Alpha occ 7 OE=-0.477 is Cl1-p=0.5854 H2-s=0.3137
 Alpha occ 8 OE=-0.339 is Cl1-p=0.9818
 Alpha occ 9 OE=-0.339 is Cl1-p=0.9818
 Alpha vir 10 OE=-0.029 is H2-s=1.2355 Cl1-s=-0.2908
 Alpha vir 11 OE=0.053 is H2-s=0.6677 Cl1-p=0.1577 Cl1-d=0.1330
 Alpha vir 12 OE=0.066 is Cl1-p=1.0461
 Alpha vir 13 OE=0.075 is Cl1-p=1.0048
 Alpha vir 14 OE=0.075 is Cl1-p=1.0048
 Alpha vir 15 OE=0.132 is Cl1-s=1.9996 H2-s=-1.0085 Cl1-p=0.1897 H2-p=-0.1297
 Alpha vir 16 OE=0.196 is H2-p=0.7895 Cl1-d=0.2075
 Alpha vir 17 OE=0.196 is H2-p=0.7895 Cl1-d=0.2075
 Alpha vir 18 OE=0.316 is Cl1-d=1.0000
 Alpha vir 19 OE=0.316 is Cl1-d=1.0000
 Alpha vir 20 OE=0.358 is H2-p=0.3863 Cl1-d=0.3459 H2-s=0.2581
 Alpha vir 21 OE=0.457 is Cl1-d=0.7211 H2-p=0.3337
 Alpha vir 22 OE=0.457 is Cl1-d=0.7211 H2-p=0.3337
 Alpha vir 23 OE=0.458 is H2-s=1.6271 H2-p=1.0423 Cl1-s=-0.9915 Cl1-p=-0.7932 Cl1-d=0.1152
 Alpha vir 24 OE=0.672 is Cl1-p=0.7373 H2-s=0.5542 Cl1-s=-0.2678
 Alpha vir 25 OE=0.710 is Cl1-p=1.0567
 Alpha vir 26 OE=0.710 is Cl1-p=1.0567
 Alpha vir 27 OE=0.819 is Cl1-p=0.5537 Cl1-d=0.2554 Cl1-s=0.1480
 Alpha vir 28 OE=1.120 is Cl1-d=1.0000
 Alpha vir 29 OE=1.120 is Cl1-d=1.0000
 Alpha vir 30 OE=1.138 is Cl1-d=0.9138
 Alpha vir 31 OE=1.138 is Cl1-d=0.9138
 Alpha vir 32 OE=1.181 is Cl1-d=0.9059 H2-p=0.1194
 Alpha vir 33 OE=1.533 is Cl1-s=1.5731 H2-s=-0.7921 Cl1-p=0.4789 H2-p=-0.3838 Cl1-d=0.1239
 Alpha vir 34 OE=1.589 is H2-p=0.8626 Cl1-d=0.1382
 Alpha vir 35 OE=1.589 is H2-p=0.8626 Cl1-d=0.1382
 Alpha vir 36 OE=2.098 is H2-p=0.8377

 Atomic contributions to Beta  molecular orbitals:
 Beta  occ 1 OE=-101.563 is Cl1-s=1.0000
 Beta  occ 2 OE=-9.480 is Cl1-s=0.9927
 Beta  occ 3 OE=-7.242 is Cl1-p=0.9997
 Beta  occ 4 OE=-7.233 is Cl1-p=1.0000
 Beta  occ 5 OE=-7.233 is Cl1-p=1.0000
 Beta  occ 6 OE=-0.851 is Cl1-s=0.8633 H2-s=0.1127
 Beta  occ 7 OE=-0.477 is Cl1-p=0.5854 H2-s=0.3137
 Beta  occ 8 OE=-0.339 is Cl1-p=0.9818
 Beta  occ 9 OE=-0.339 is Cl1-p=0.9818
 Beta  vir 10 OE=-0.029 is H2-s=1.2355 Cl1-s=-0.2908
 Beta  vir 11 OE=0.053 is H2-s=0.6677 Cl1-p=0.1577 Cl1-d=0.1330
 Beta  vir 12 OE=0.066 is Cl1-p=1.0461
 Beta  vir 13 OE=0.075 is Cl1-p=1.0048
 Beta  vir 14 OE=0.075 is Cl1-p=1.0048
 Beta  vir 15 OE=0.132 is Cl1-s=1.9996 H2-s=-1.0085 Cl1-p=0.1897 H2-p=-0.1297
 Beta  vir 16 OE=0.196 is H2-p=0.7895 Cl1-d=0.2075
 Beta  vir 17 OE=0.196 is H2-p=0.7895 Cl1-d=0.2075
 Beta  vir 18 OE=0.316 is Cl1-d=1.0000
 Beta  vir 19 OE=0.316 is Cl1-d=1.0000
 Beta  vir 20 OE=0.358 is H2-p=0.3863 Cl1-d=0.3459 H2-s=0.2581
 Beta  vir 21 OE=0.457 is Cl1-d=0.7211 H2-p=0.3337
 Beta  vir 22 OE=0.457 is Cl1-d=0.7211 H2-p=0.3337
 Beta  vir 23 OE=0.458 is H2-s=1.6271 H2-p=1.0423 Cl1-s=-0.9915 Cl1-p=-0.7932 Cl1-d=0.1152
 Beta  vir 24 OE=0.672 is Cl1-p=0.7373 H2-s=0.5542 Cl1-s=-0.2678
 Beta  vir 25 OE=0.710 is Cl1-p=1.0567
 Beta  vir 26 OE=0.710 is Cl1-p=1.0567
 Beta  vir 27 OE=0.819 is Cl1-p=0.5537 Cl1-d=0.2554 Cl1-s=0.1480
 Beta  vir 28 OE=1.120 is Cl1-d=1.0000
 Beta  vir 29 OE=1.120 is Cl1-d=1.0000
 Beta  vir 30 OE=1.138 is Cl1-d=0.9138
 Beta  vir 31 OE=1.138 is Cl1-d=0.9138
 Beta  vir 32 OE=1.181 is Cl1-d=0.9059 H2-p=0.1194
 Beta  vir 33 OE=1.533 is Cl1-s=1.5731 H2-s=-0.7921 Cl1-p=0.4789 H2-p=-0.3838 Cl1-d=0.1239
 Beta  vir 34 OE=1.589 is H2-p=0.8626 Cl1-d=0.1382
 Beta  vir 35 OE=1.589 is H2-p=0.8626 Cl1-d=0.1382
 Beta  vir 36 OE=2.098 is H2-p=0.8377
 
                          Isotropic Fermi Contact Couplings
        Atom                 a.u.       MegaHertz       Gauss      10(-4) cm-1
     1  Cl(35)             0.00000       0.00000       0.00000       0.00000
     2  H(1)              -0.00000      -0.00000      -0.00000      -0.00000
 --------------------------------------------------------
       Center         ----  Spin Dipole Couplings  ----
                      3XX-RR        3YY-RR        3ZZ-RR
 --------------------------------------------------------
     1   Atom        0.000000      0.000000      0.000000
     2   Atom        0.000000      0.000000      0.000000
 --------------------------------------------------------
                        XY            XZ            YZ
 --------------------------------------------------------
     1   Atom        0.000000      0.000000      0.000000
     2   Atom        0.000000      0.000000      0.000000
 --------------------------------------------------------


 ---------------------------------------------------------------------------------
              Anisotropic Spin Dipole Couplings in Principal Axis System
 ---------------------------------------------------------------------------------

       Atom             a.u.   MegaHertz   Gauss  10(-4) cm-1        Axes

              Baa     0.0000     0.000     0.000     0.000  1.0000  0.0000  0.0000
     1 Cl(35) Bbb     0.0000     0.000     0.000     0.000 -0.0000  1.0000  0.0000
              Bcc     0.0000     0.000     0.000     0.000  0.0000  0.0000  1.0000
 
              Baa     0.0000     0.000     0.000     0.000  1.0000  0.0000  0.0000
     2 H(1)   Bbb     0.0000     0.000     0.000     0.000 -0.0000  1.0000  0.0000
              Bcc     0.0000     0.000     0.000     0.000  0.0000  0.0000  1.0000
 

 ---------------------------------------------------------------------------------

 No NMR shielding tensors so no spin-rotation constants.
 Leave Link  601 at Sat Aug  1 14:41:56 2020, MaxMem=   524288000 cpu:               1.1 elap:               0.2
 (Enter /home/ubuntu/g16/l602.exe)
 FitSet:  NAtFit=     2 NAtPot=     2 NAtFrz=     0 MDM=     6 TotChg=   0.00000
 Merz-Kollman atomic radii used.

 **********************************************************************

            Electrostatic Properties Using The SCF Density

 **********************************************************************

       Atomic Center    1 is at  -0.000000  0.000000  0.071938
       Atomic Center    2 is at   0.000000  0.000000 -1.222942
     398 points will be used for fitting atomic charges
 Fitting point charges to electrostatic potential
 Charges from ESP fit, RMS=   0.00444 RRMS=   0.39331:
 ESP charges:
               1
     1  Cl  -0.210356
     2  H    0.210356
 Sum of ESP charges =   0.00000
 ESP charges with hydrogens summed into heavy atoms:
               1
     1  Cl   0.000000
 Charge=   0.00000 Dipole=     0.0000     0.0000    -1.3083 Tot=     1.3083
 -----------------------------------------------------------------

              Electrostatic Properties (Atomic Units)

 -----------------------------------------------------------------
    Center     Electric         -------- Electric Field --------
               Potential          X             Y             Z
 -----------------------------------------------------------------
    1 Atom    -64.391242
    2 Atom     -0.932016
 -----------------------------------------------------------------
 Leave Link  602 at Sat Aug  1 14:41:56 2020, MaxMem=   524288000 cpu:               0.2 elap:               0.0
 (Enter /home/ubuntu/g16/l607.exe)
 ******************************Gaussian NBO Version 3.1******************************
             N A T U R A L   A T O M I C   O R B I T A L   A N D
          N A T U R A L   B O N D   O R B I T A L   A N A L Y S I S
 ******************************Gaussian NBO Version 3.1******************************

       /RESON  / : Allow strongly delocalized NBO set
       /BNDIDX / : Print bond indices based on the NAO density matrix

 Analyzing the SCF density

 Job title: HCl_UB3LYP-aug-cc-pVDZ                                          

 Storage needed:      4152 in NPA,      5363 in NBO ( 524287972 available)
 GSVD:  LWork=        -154 too small for GESVD, short by        2829 words or        2829 for optimal perf.


 NATURAL POPULATIONS:  Natural atomic orbital occupancies 
                                                          
   NAO  Atom  No  lang   Type(AO)    Occupancy
 --------------------------------------------
     1   Cl    1  S      Cor( 1S)     2.00000
     2   Cl    1  S      Cor( 2S)     1.99982
     3   Cl    1  S      Val( 3S)     1.89330
     4   Cl    1  S      Ryd( 4S)     0.00014
     5   Cl    1  S      Ryd( 5S)     0.00000
     6   Cl    1  px     Cor( 2p)     2.00000
     7   Cl    1  px     Val( 3p)     1.99588
     8   Cl    1  px     Ryd( 4p)     0.00024
     9   Cl    1  px     Ryd( 5p)     0.00000
    10   Cl    1  py     Cor( 2p)     2.00000
    11   Cl    1  py     Val( 3p)     1.99588
    12   Cl    1  py     Ryd( 4p)     0.00024
    13   Cl    1  py     Ryd( 5p)     0.00000
    14   Cl    1  pz     Cor( 2p)     1.99996
    15   Cl    1  pz     Val( 3p)     1.38674
    16   Cl    1  pz     Ryd( 4p)     0.00142
    17   Cl    1  pz     Ryd( 5p)     0.00001
    18   Cl    1  dxy    Ryd( 4d)     0.00000
    19   Cl    1  dxy    Ryd( 3d)     0.00000
    20   Cl    1  dxz    Ryd( 3d)     0.00181
    21   Cl    1  dxz    Ryd( 4d)     0.00011
    22   Cl    1  dyz    Ryd( 3d)     0.00181
    23   Cl    1  dyz    Ryd( 4d)     0.00011
    24   Cl    1  dx2y2  Ryd( 3d)     0.00000
    25   Cl    1  dx2y2  Ryd( 4d)     0.00000
    26   Cl    1  dz2    Ryd( 3d)     0.00572
    27   Cl    1  dz2    Ryd( 4d)     0.00022

    28    H    2  S      Val( 1S)     0.70752
    29    H    2  S      Ryd( 2S)     0.00054
    30    H    2  S      Ryd( 3S)     0.00003
    31    H    2  px     Ryd( 2p)     0.00129
    32    H    2  px     Ryd( 3p)     0.00067
    33    H    2  py     Ryd( 2p)     0.00129
    34    H    2  py     Ryd( 3p)     0.00067
    35    H    2  pz     Ryd( 2p)     0.00356
    36    H    2  pz     Ryd( 3p)     0.00103


 Summary of Natural Population Analysis:                  
                                                          
                                       Natural Population 
                Natural  -----------------------------------------------
    Atom  No    Charge         Core      Valence    Rydberg      Total
 -----------------------------------------------------------------------
     Cl    1   -0.28339      9.99977     7.27179    0.01184    17.28339
      H    2    0.28339      0.00000     0.70752    0.00909     0.71661
 =======================================================================
   * Total *    0.00000      9.99977     7.97931    0.02093    18.00000

                                 Natural Population      
 --------------------------------------------------------
   Core                       9.99977 ( 99.9977% of  10)
   Valence                    7.97931 ( 99.7413% of   8)
   Natural Minimal Basis     17.97907 ( 99.8837% of  18)
   Natural Rydberg Basis      0.02093 (  0.1163% of  18)
 --------------------------------------------------------

    Atom  No          Natural Electron Configuration
 ----------------------------------------------------------------------------
     Cl    1      [core]3S( 1.89)3p( 5.38)3d( 0.01)
      H    2            1S( 0.71)2p( 0.01)


 Wiberg bond index matrix in the NAO basis:                                    

     Atom    1       2
     ---- ------  ------
   1. Cl  0.0000  0.9263
   2.  H  0.9263  0.0000


 Wiberg bond index, Totals by atom:                                            

     Atom    1
     ---- ------
   1. Cl  0.9263
   2.  H  0.9263


 Atom-atom overlap-weighted NAO bond order:                                    

     Atom    1       2
     ---- ------  ------
   1. Cl  0.0000  0.6869
   2.  H  0.6869  0.0000


 Atom-atom overlap-weighted NAO bond order, Totals by atom:                    

     Atom    1
     ---- ------
   1. Cl  0.6869
   2.  H  0.6869


 MO bond order:                                                                

     Atom    1       2
     ---- ------  ------
   1. Cl  0.0000 -0.1881
   2.  H -0.1881  0.0000


 MO atomic valencies:                                                          

     Atom    1
     ---- ------
   1. Cl -0.1881
   2.  H -0.1881


 ***************************************************
 *******         Alpha spin orbitals         *******
 ***************************************************


 NATURAL POPULATIONS:  Natural atomic orbital occupancies 
                                                          
   NAO  Atom  No  lang   Type(AO)    Occupancy      Energy
 ----------------------------------------------------------
     1   Cl    1  S      Cor( 1S)     1.00000    -100.64172
     2   Cl    1  S      Cor( 2S)     0.99991     -10.18524
     3   Cl    1  S      Val( 3S)     0.94665      -0.96536
     4   Cl    1  S      Ryd( 5S)     0.00007       1.22182
     5   Cl    1  S      Ryd( 4S)     0.00000       0.24329
     6   Cl    1  px     Cor( 2p)     1.00000      -7.22814
     7   Cl    1  px     Val( 3p)     0.99794      -0.34138
     8   Cl    1  px     Ryd( 5p)     0.00012       0.51064
     9   Cl    1  px     Ryd( 4p)     0.00000       0.29831
    10   Cl    1  py     Cor( 2p)     1.00000      -7.22814
    11   Cl    1  py     Val( 3p)     0.99794      -0.34138
    12   Cl    1  py     Ryd( 5p)     0.00012       0.51064
    13   Cl    1  py     Ryd( 4p)     0.00000       0.29831
    14   Cl    1  pz     Cor( 2p)     0.99998      -7.23638
    15   Cl    1  pz     Val( 3p)     0.69337      -0.30422
    16   Cl    1  pz     Ryd( 5p)     0.00071       0.65914
    17   Cl    1  pz     Ryd( 4p)     0.00000       0.32611
    18   Cl    1  dxy    Ryd( 3d)     0.00000       0.46760
    19   Cl    1  dxy    Ryd( 4d)     0.00000       0.96832
    20   Cl    1  dxz    Ryd( 3d)     0.00090       0.48826
    21   Cl    1  dxz    Ryd( 4d)     0.00006       1.07683
    22   Cl    1  dyz    Ryd( 3d)     0.00090       0.48826
    23   Cl    1  dyz    Ryd( 4d)     0.00006       1.07683
    24   Cl    1  dx2y2  Ryd( 3d)     0.00000       0.46760
    25   Cl    1  dx2y2  Ryd( 4d)     0.00000       0.96832
    26   Cl    1  dz2    Ryd( 3d)     0.00286       0.87723
    27   Cl    1  dz2    Ryd( 4d)     0.00011       1.07538

    28    H    2  S      Val( 1S)     0.35376      -0.11928
    29    H    2  S      Ryd( 3S)     0.00027       0.36573
    30    H    2  S      Ryd( 2S)     0.00002       0.12410
    31    H    2  px     Ryd( 3p)     0.00065       1.46966
    32    H    2  px     Ryd( 2p)     0.00034       0.31875
    33    H    2  py     Ryd( 3p)     0.00065       1.46966
    34    H    2  py     Ryd( 2p)     0.00034       0.31875
    35    H    2  pz     Ryd( 3p)     0.00178       1.86326
    36    H    2  pz     Ryd( 2p)     0.00051       0.42356

 WARNING:  Population inversion found on atom Cl    1
           Population inversion found on atom  H    2


 Summary of Natural Population Analysis:                  
                                                          
                                       Natural Population 
                Natural  -----------------------------------------------
    Atom  No    Charge         Core      Valence    Rydberg      Total
 -----------------------------------------------------------------------
     Cl    1   -0.14169      4.99988     3.63589    0.00592     8.64169
      H    2    0.14169      0.00000     0.35376    0.00455     0.35831
 =======================================================================
   * Total *   -0.00000      4.99988     3.98965    0.01046     9.00000

                                 Natural Population      
 --------------------------------------------------------
   Core                       4.99988 ( 99.9977% of   5)
   Valence                    3.98965 ( 99.7413% of   4)
   Natural Minimal Basis      8.98954 ( 99.8837% of   9)
   Natural Rydberg Basis      0.01046 (  0.1163% of   9)
 --------------------------------------------------------

    Atom  No          Natural Electron Configuration
 ----------------------------------------------------------------------------
     Cl    1      [core]3S( 0.95)3p( 2.69)
      H    2            1S( 0.35)


 Wiberg bond index matrix in the NAO basis:                                    

     Atom    1       2
     ---- ------  ------
   1. Cl  0.0000  0.2316
   2.  H  0.2316  0.0000


 Wiberg bond index, Totals by atom:                                            

     Atom    1
     ---- ------
   1. Cl  0.2316
   2.  H  0.2316


 Atom-atom overlap-weighted NAO bond order:                                    

     Atom    1       2
     ---- ------  ------
   1. Cl  0.0000  0.3434
   2.  H  0.3434  0.0000


 Atom-atom overlap-weighted NAO bond order, Totals by atom:                    

     Atom    1
     ---- ------
   1. Cl  0.3434
   2.  H  0.3434


 MO bond order:                                                                

     Atom    1       2
     ---- ------  ------
   1. Cl  0.0000 -0.0941
   2.  H -0.0941  0.0000


 MO atomic valencies:                                                          

     Atom    1
     ---- ------
   1. Cl -0.0941
   2.  H -0.0941


 NATURAL BOND ORBITAL ANALYSIS, alpha spin orbitals:

                       Occupancies       Lewis Structure    Low   High
           Occ.    -------------------  -----------------   occ   occ
  Cycle   Thresh.   Lewis   Non-Lewis     CR  BD  3C  LP    (L)   (NL)   Dev
 =============================================================================
   1(1)    0.90     8.99769   0.00231      5   1   0   3     0      0    0.00
 -----------------------------------------------------------------------------

 Structure accepted: No low occupancy Lewis orbitals

 --------------------------------------------------------
   Core                      4.99988 ( 99.998% of   5)
   Valence Lewis             3.99781 ( 99.945% of   4)
  ==================       ============================
   Total Lewis               8.99769 ( 99.974% of   9)
  -----------------------------------------------------
   Valence non-Lewis         0.00000 (  0.000% of   9)
   Rydberg non-Lewis         0.00231 (  0.026% of   9)
  ==================       ============================
   Total non-Lewis           0.00231 (  0.026% of   9)
 --------------------------------------------------------


       (Occupancy)   Bond orbital/ Coefficients/ Hybrids
 ---------------------------------------------------------------------------------
     1. (1.00000) BD ( 1)Cl   1 - H   2  
                ( 64.40%)   0.8025*Cl   1 s( 14.85%)p 5.71( 84.71%)d 0.03(  0.44%)
                                            0.0000  0.0000 -0.3852 -0.0099 -0.0000
                                            0.0000  0.0000  0.0000  0.0000  0.0000
                                            0.0000  0.0000  0.0000  0.0000  0.9198
                                           -0.0320  0.0009  0.0000  0.0000  0.0000
                                            0.0000  0.0000  0.0000  0.0000  0.0000
                                           -0.0652 -0.0119
                ( 35.60%)   0.5967* H   2 s( 99.37%)p 0.01(  0.63%)
                                           -0.9968  0.0000  0.0000  0.0000  0.0000
                                            0.0000  0.0000 -0.0704  0.0367
     2. (1.00000) CR ( 1)Cl   1           s(100.00%)
                                            1.0000 -0.0000  0.0000 -0.0000 -0.0000
                                            0.0000  0.0000  0.0000  0.0000  0.0000
                                            0.0000  0.0000  0.0000  0.0000  0.0000
                                           -0.0000 -0.0000  0.0000  0.0000  0.0000
                                            0.0000  0.0000  0.0000  0.0000  0.0000
                                           -0.0000  0.0000
     3. (0.99991) CR ( 2)Cl   1           s(100.00%)
                                           -0.0000  1.0000  0.0001 -0.0000 -0.0000
                                            0.0000  0.0000  0.0000  0.0000  0.0000
                                            0.0000  0.0000  0.0000  0.0000  0.0000
                                           -0.0000 -0.0000  0.0000  0.0000  0.0000
                                            0.0000  0.0000  0.0000  0.0000  0.0000
                                           -0.0000  0.0000
     4. (1.00000) CR ( 3)Cl   1           s(  0.00%)p 1.00(100.00%)
                                            0.0000  0.0000  0.0000  0.0000  0.0000
                                            1.0000 -0.0000 -0.0000 -0.0000  0.0000
                                            0.0000  0.0000  0.0000  0.0000  0.0000
                                            0.0000  0.0000  0.0000  0.0000  0.0000
                                           -0.0000  0.0000  0.0000  0.0000  0.0000
                                            0.0000  0.0000
     5. (1.00000) CR ( 4)Cl   1           s(  0.00%)p 1.00(100.00%)
                                            0.0000  0.0000  0.0000  0.0000  0.0000
                                            0.0000  0.0000  0.0000  0.0000  1.0000
                                           -0.0000 -0.0000 -0.0000  0.0000  0.0000
                                            0.0000  0.0000  0.0000  0.0000  0.0000
                                            0.0000  0.0000 -0.0000  0.0000  0.0000
                                            0.0000  0.0000
     6. (0.99998) CR ( 5)Cl   1           s(  0.00%)p 1.00(100.00%)
                                            0.0000  0.0000 -0.0000  0.0000  0.0000
                                            0.0000  0.0000  0.0000  0.0000  0.0000
                                            0.0000  0.0000  0.0000  1.0000 -0.0000
                                            0.0000  0.0000  0.0000  0.0000  0.0000
                                            0.0000  0.0000  0.0000  0.0000  0.0000
                                            0.0000 -0.0000
     7. (0.99977) LP ( 1)Cl   1           s( 85.13%)p 0.17( 14.86%)d 0.00(  0.01%)
                                           -0.0000 -0.0001  0.9227 -0.0027 -0.0000
                                            0.0000  0.0000  0.0000  0.0000  0.0000
                                            0.0000  0.0000  0.0000  0.0000  0.3854
                                           -0.0072 -0.0021  0.0000  0.0000  0.0000
                                            0.0000  0.0000  0.0000  0.0000  0.0000
                                           -0.0111  0.0042
     8. (0.99902) LP ( 2)Cl   1           s(  0.00%)p 1.00( 99.90%)d 0.00(  0.10%)
                                            0.0000  0.0000  0.0000  0.0000  0.0000
                                            0.0000  0.9995  0.0109  0.0001  0.0000
                                            0.0000  0.0000  0.0000  0.0000  0.0000
                                            0.0000  0.0000  0.0000  0.0000 -0.0301
                                            0.0075  0.0000  0.0000  0.0000  0.0000
                                            0.0000  0.0000
     9. (0.99902) LP ( 3)Cl   1           s(  0.00%)p 1.00( 99.90%)d 0.00(  0.10%)
                                            0.0000  0.0000  0.0000  0.0000  0.0000
                                            0.0000  0.0000  0.0000  0.0000  0.0000
                                            0.9995  0.0109  0.0001  0.0000  0.0000
                                            0.0000  0.0000  0.0000  0.0000  0.0000
                                            0.0000 -0.0301  0.0075  0.0000  0.0000
                                            0.0000  0.0000
    10. (0.00000) RY*( 1)Cl   1           s( 99.99%)p 0.00(  0.01%)d 0.00(  0.00%)
    11. (0.00000) RY*( 2)Cl   1           s(100.00%)
    12. (0.00000) RY*( 3)Cl   1           s(  0.00%)p 1.00(100.00%)d 0.00(  0.00%)
    13. (0.00000) RY*( 4)Cl   1           s(  0.00%)p 1.00(100.00%)
    14. (0.00000) RY*( 5)Cl   1           s(  0.00%)p 1.00(100.00%)d 0.00(  0.00%)
    15. (0.00000) RY*( 6)Cl   1           s(  0.00%)p 1.00(100.00%)
    16. (0.00000) RY*( 7)Cl   1           s(  0.00%)p 1.00(100.00%)d 0.00(  0.00%)
    17. (0.00000) RY*( 8)Cl   1           s(  0.00%)p 1.00(100.00%)
    18. (0.00000) RY*( 9)Cl   1           s(  0.00%)p 0.00(  0.00%)d 1.00(100.00%)
    19. (0.00000) RY*(10)Cl   1           s(  0.00%)p 0.00(  0.00%)d 1.00(100.00%)
    20. (0.00000) RY*(11)Cl   1           s(  0.00%)p 1.00(  0.09%)d99.99( 99.91%)
    21. (0.00000) RY*(12)Cl   1           s(  0.00%)p 0.00(  0.01%)d 1.00( 99.99%)
    22. (0.00000) RY*(13)Cl   1           s(  0.00%)p 1.00(  0.09%)d99.99( 99.91%)
    23. (0.00000) RY*(14)Cl   1           s(  0.00%)p 0.00(  0.01%)d 1.00( 99.99%)
    24. (0.00000) RY*(15)Cl   1           s(  0.00%)p 0.00(  0.00%)d 1.00(100.00%)
    25. (0.00000) RY*(16)Cl   1           s(  0.00%)p 0.00(  0.00%)d 1.00(100.00%)
    26. (0.00000) RY*(17)Cl   1           s(  0.02%)p18.75(  0.42%)d99.99( 99.56%)
    27. (0.00000) RY*(18)Cl   1           s(  0.01%)p 0.00(  0.01%)d 1.00( 99.98%)
    28. (0.00098) RY*( 1) H   2           s(  0.00%)p 1.00(100.00%)
                                            0.0000  0.0000  0.0000  0.8110  0.5850
                                            0.0000  0.0000  0.0000  0.0000
    29. (0.00098) RY*( 2) H   2           s(  0.00%)p 1.00(100.00%)
                                            0.0000  0.0000  0.0000  0.0000  0.0000
                                            0.8110  0.5850  0.0000  0.0000
    30. (0.00031) RY*( 3) H   2           s( 86.84%)p 0.15( 13.16%)
                                            0.0225  0.9316  0.0059  0.0000  0.0000
                                            0.0000  0.0000 -0.1447  0.3327
    31. (0.00003) RY*( 4) H   2           s( 58.08%)p 0.72( 41.92%)
    32. (0.00000) RY*( 5) H   2           s(  0.00%)p 1.00(100.00%)
    33. (0.00000) RY*( 6) H   2           s(  0.00%)p 1.00(100.00%)
    34. (0.00000) RY*( 7) H   2           s( 44.16%)p 1.26( 55.84%)
    35. (0.00000) RY*( 8) H   2           s( 11.55%)p 7.66( 88.45%)
    36. (0.00000) BD*( 1)Cl   1 - H   2  
                ( 35.60%)   0.5967*Cl   1 s( 14.85%)p 5.71( 84.71%)d 0.03(  0.44%)
                ( 64.40%)  -0.8025* H   2 s( 99.37%)p 0.01(  0.63%)


 NHO Directionality and "Bond Bending" (deviations from line of nuclear centers)

         [Thresholds for printing:  angular deviation  >  1.0 degree]
                                    hybrid p-character > 25.0%
                                    orbital occupancy  >  0.10e

                                Line of Centers        Hybrid 1              Hybrid 2
                                ---------------  -------------------   ------------------
                NBO               Theta   Phi    Theta   Phi    Dev    Theta   Phi    Dev
 ========================================================================================
     8. LP (   2)Cl   1             --     --     90.0    0.0   --       --     --    --
     9. LP (   3)Cl   1             --     --     90.0   90.0   --       --     --    --


 Second Order Perturbation Theory Analysis of Fock Matrix in NBO Basis

     Threshold for printing:   0.25 kcal/mol
                                                                              E(2)  E(j)-E(i) F(i,j)
         Donor NBO (i)                     Acceptor NBO (j)                 kcal/mol   a.u.    a.u. 
 ===================================================================================================

 within unit  1
   3. CR (   2)Cl   1                / 30. RY*(   3) H   2                    0.70   10.55    0.109
   7. LP (   1)Cl   1                / 30. RY*(   3) H   2                    0.41    1.26    0.029
   8. LP (   2)Cl   1                / 28. RY*(   1) H   2                    0.76    1.24    0.039
   9. LP (   3)Cl   1                / 29. RY*(   2) H   2                    0.76    1.24    0.039


 Natural Bond Orbitals (Summary):

                                                            Principal Delocalizations
           NBO                        Occupancy    Energy   (geminal,vicinal,remote)
 ====================================================================================
 Molecular unit  1  (HCl)
     1. BD (   1)Cl   1 - H   2          1.00000    -0.65304   
     2. CR (   1)Cl   1                  1.00000  -100.64172   
     3. CR (   2)Cl   1                  0.99991   -10.18538  30(v)
     4. CR (   3)Cl   1                  1.00000    -7.22814   
     5. CR (   4)Cl   1                  1.00000    -7.22814   
     6. CR (   5)Cl   1                  0.99998    -7.23638   
     7. LP (   1)Cl   1                  0.99977    -0.89494  30(v)
     8. LP (   2)Cl   1                  0.99902    -0.34187  28(v)
     9. LP (   3)Cl   1                  0.99902    -0.34187  29(v)
    10. RY*(   1)Cl   1                  0.00000     1.22136   
    11. RY*(   2)Cl   1                  0.00000     0.24329   
    12. RY*(   3)Cl   1                  0.00000     0.51076   
    13. RY*(   4)Cl   1                  0.00000     0.29831   
    14. RY*(   5)Cl   1                  0.00000     0.51076   
    15. RY*(   6)Cl   1                  0.00000     0.29831   
    16. RY*(   7)Cl   1                  0.00000     0.65592   
    17. RY*(   8)Cl   1                  0.00000     0.32612   
    18. RY*(   9)Cl   1                  0.00000     0.46760   
    19. RY*(  10)Cl   1                  0.00000     0.96832   
    20. RY*(  11)Cl   1                  0.00000     0.48867   
    21. RY*(  12)Cl   1                  0.00000     1.07678   
    22. RY*(  13)Cl   1                  0.00000     0.48867   
    23. RY*(  14)Cl   1                  0.00000     1.07678   
    24. RY*(  15)Cl   1                  0.00000     0.46760   
    25. RY*(  16)Cl   1                  0.00000     0.96832   
    26. RY*(  17)Cl   1                  0.00000     0.86222   
    27. RY*(  18)Cl   1                  0.00000     1.07552   
    28. RY*(   1) H   2                  0.00098     0.89539   
    29. RY*(   2) H   2                  0.00098     0.89539   
    30. RY*(   3) H   2                  0.00031     0.36048   
    31. RY*(   4) H   2                  0.00003     0.82497   
    32. RY*(   5) H   2                  0.00000     0.89302   
    33. RY*(   6) H   2                  0.00000     0.89302   
    34. RY*(   7) H   2                  0.00000     1.12162   
    35. RY*(   8) H   2                  0.00000     0.46552   
    36. BD*(   1)Cl   1 - H   2          0.00000     0.18187   
       -------------------------------
              Total Lewis    8.99769  ( 99.9743%)
        Valence non-Lewis    0.00000  (  0.0000%)
        Rydberg non-Lewis    0.00231  (  0.0257%)
       -------------------------------
            Total unit  1    9.00000  (100.0000%)
           Charge unit  1    0.00000


 ***************************************************
 *******         Beta  spin orbitals         *******
 ***************************************************


 NATURAL POPULATIONS:  Natural atomic orbital occupancies 
                                                          
   NAO  Atom  No  lang   Type(AO)    Occupancy      Energy
 ----------------------------------------------------------
     1   Cl    1  S      Cor( 1S)     1.00000    -100.64172
     2   Cl    1  S      Cor( 2S)     0.99991     -10.18524
     3   Cl    1  S      Val( 3S)     0.94665      -0.96536
     4   Cl    1  S      Ryd( 5S)     0.00007       1.22182
     5   Cl    1  S      Ryd( 4S)     0.00000       0.24329
     6   Cl    1  px     Cor( 2p)     1.00000      -7.22814
     7   Cl    1  px     Val( 3p)     0.99794      -0.34138
     8   Cl    1  px     Ryd( 5p)     0.00012       0.51064
     9   Cl    1  px     Ryd( 4p)     0.00000       0.29831
    10   Cl    1  py     Cor( 2p)     1.00000      -7.22814
    11   Cl    1  py     Val( 3p)     0.99794      -0.34138
    12   Cl    1  py     Ryd( 5p)     0.00012       0.51064
    13   Cl    1  py     Ryd( 4p)     0.00000       0.29831
    14   Cl    1  pz     Cor( 2p)     0.99998      -7.23638
    15   Cl    1  pz     Val( 3p)     0.69337      -0.30422
    16   Cl    1  pz     Ryd( 5p)     0.00071       0.65914
    17   Cl    1  pz     Ryd( 4p)     0.00000       0.32611
    18   Cl    1  dxy    Ryd( 3d)     0.00000       0.46760
    19   Cl    1  dxy    Ryd( 4d)     0.00000       0.96832
    20   Cl    1  dxz    Ryd( 3d)     0.00090       0.48826
    21   Cl    1  dxz    Ryd( 4d)     0.00006       1.07683
    22   Cl    1  dyz    Ryd( 3d)     0.00090       0.48826
    23   Cl    1  dyz    Ryd( 4d)     0.00006       1.07683
    24   Cl    1  dx2y2  Ryd( 3d)     0.00000       0.46760
    25   Cl    1  dx2y2  Ryd( 4d)     0.00000       0.96832
    26   Cl    1  dz2    Ryd( 3d)     0.00286       0.87723
    27   Cl    1  dz2    Ryd( 4d)     0.00011       1.07538

    28    H    2  S      Val( 1S)     0.35376      -0.11928
    29    H    2  S      Ryd( 3S)     0.00027       0.36573
    30    H    2  S      Ryd( 2S)     0.00002       0.12410
    31    H    2  px     Ryd( 3p)     0.00065       1.46966
    32    H    2  px     Ryd( 2p)     0.00034       0.31875
    33    H    2  py     Ryd( 3p)     0.00065       1.46966
    34    H    2  py     Ryd( 2p)     0.00034       0.31875
    35    H    2  pz     Ryd( 3p)     0.00178       1.86326
    36    H    2  pz     Ryd( 2p)     0.00051       0.42356

 WARNING:  Population inversion found on atom Cl    1
           Population inversion found on atom  H    2


 Summary of Natural Population Analysis:                  
                                                          
                                       Natural Population 
                Natural  -----------------------------------------------
    Atom  No    Charge         Core      Valence    Rydberg      Total
 -----------------------------------------------------------------------
     Cl    1   -0.14169      4.99988     3.63589    0.00592     8.64169
      H    2    0.14169      0.00000     0.35376    0.00455     0.35831
 =======================================================================
   * Total *   -0.00000      4.99988     3.98965    0.01046     9.00000

                                 Natural Population      
 --------------------------------------------------------
   Core                       4.99988 ( 99.9977% of   5)
   Valence                    3.98965 ( 99.7413% of   4)
   Natural Minimal Basis      8.98954 ( 99.8837% of   9)
   Natural Rydberg Basis      0.01046 (  0.1163% of   9)
 --------------------------------------------------------

    Atom  No          Natural Electron Configuration
 ----------------------------------------------------------------------------
     Cl    1      [core]3S( 0.95)3p( 2.69)
      H    2            1S( 0.35)


 Wiberg bond index matrix in the NAO basis:                                    

     Atom    1       2
     ---- ------  ------
   1. Cl  0.0000  0.2316
   2.  H  0.2316  0.0000


 Wiberg bond index, Totals by atom:                                            

     Atom    1
     ---- ------
   1. Cl  0.2316
   2.  H  0.2316


 Atom-atom overlap-weighted NAO bond order:                                    

     Atom    1       2
     ---- ------  ------
   1. Cl  0.0000  0.3434
   2.  H  0.3434  0.0000


 Atom-atom overlap-weighted NAO bond order, Totals by atom:                    

     Atom    1
     ---- ------
   1. Cl  0.3434
   2.  H  0.3434


 MO bond order:                                                                

     Atom    1       2
     ---- ------  ------
   1. Cl  0.0000 -0.0941
   2.  H -0.0941  0.0000


 MO atomic valencies:                                                          

     Atom    1
     ---- ------
   1. Cl -0.0941
   2.  H -0.0941


 NATURAL BOND ORBITAL ANALYSIS, beta spin orbitals:

                       Occupancies       Lewis Structure    Low   High
           Occ.    -------------------  -----------------   occ   occ
  Cycle   Thresh.   Lewis   Non-Lewis     CR  BD  3C  LP    (L)   (NL)   Dev
 =============================================================================
   1(1)    0.90     8.99769   0.00231      5   1   0   3     0      0    0.00
 -----------------------------------------------------------------------------

 Structure accepted: No low occupancy Lewis orbitals

 --------------------------------------------------------
   Core                      4.99988 ( 99.998% of   5)
   Valence Lewis             3.99781 ( 99.945% of   4)
  ==================       ============================
   Total Lewis               8.99769 ( 99.974% of   9)
  -----------------------------------------------------
[...]
                                            0.9995  0.0109  0.0001  0.0000  0.0000
                                            0.0000  0.0000  0.0000  0.0000  0.0000
                                            0.0000 -0.0301  0.0075  0.0000  0.0000
                                            0.0000  0.0000
    10. (0.00000) RY*( 1)Cl   1           s( 99.99%)p 0.00(  0.01%)d 0.00(  0.00%)
    11. (0.00000) RY*( 2)Cl   1           s(100.00%)
    12. (0.00000) RY*( 3)Cl   1           s(  0.00%)p 1.00(100.00%)d 0.00(  0.00%)
    13. (0.00000) RY*( 4)Cl   1           s(  0.00%)p 1.00(100.00%)
    14. (0.00000) RY*( 5)Cl   1           s(  0.00%)p 1.00(100.00%)d 0.00(  0.00%)
    15. (0.00000) RY*( 6)Cl   1           s(  0.00%)p 1.00(100.00%)
    16. (0.00000) RY*( 7)Cl   1           s(  0.00%)p 1.00(100.00%)d 0.00(  0.00%)
    17. (0.00000) RY*( 8)Cl   1           s(  0.00%)p 1.00(100.00%)
    18. (0.00000) RY*( 9)Cl   1           s(  0.00%)p 0.00(  0.00%)d 1.00(100.00%)
    19. (0.00000) RY*(10)Cl   1           s(  0.00%)p 0.00(  0.00%)d 1.00(100.00%)
    20. (0.00000) RY*(11)Cl   1           s(  0.00%)p 1.00(  0.09%)d99.99( 99.91%)
    21. (0.00000) RY*(12)Cl   1           s(  0.00%)p 0.00(  0.01%)d 1.00( 99.99%)
    22. (0.00000) RY*(13)Cl   1           s(  0.00%)p 1.00(  0.09%)d99.99( 99.91%)
    23. (0.00000) RY*(14)Cl   1           s(  0.00%)p 0.00(  0.01%)d 1.00( 99.99%)
    24. (0.00000) RY*(15)Cl   1           s(  0.00%)p 0.00(  0.00%)d 1.00(100.00%)
    25. (0.00000) RY*(16)Cl   1           s(  0.00%)p 0.00(  0.00%)d 1.00(100.00%)
    26. (0.00000) RY*(17)Cl   1           s(  0.02%)p18.75(  0.42%)d99.99( 99.56%)
    27. (0.00000) RY*(18)Cl   1           s(  0.01%)p 0.00(  0.01%)d 1.00( 99.98%)
    28. (0.00098) RY*( 1) H   2           s(  0.00%)p 1.00(100.00%)
                                            0.0000  0.0000  0.0000  0.8110  0.5850
                                            0.0000  0.0000  0.0000  0.0000
    29. (0.00098) RY*( 2) H   2           s(  0.00%)p 1.00(100.00%)
                                            0.0000  0.0000  0.0000  0.0000  0.0000
                                            0.8110  0.5850  0.0000  0.0000
    30. (0.00031) RY*( 3) H   2           s( 86.84%)p 0.15( 13.16%)
                                            0.0225  0.9316  0.0059  0.0000  0.0000
                                            0.0000  0.0000 -0.1447  0.3327
    31. (0.00003) RY*( 4) H   2           s( 58.08%)p 0.72( 41.92%)
    32. (0.00000) RY*( 5) H   2           s(  0.00%)p 1.00(100.00%)
    33. (0.00000) RY*( 6) H   2           s(  0.00%)p 1.00(100.00%)
    34. (0.00000) RY*( 7) H   2           s( 44.16%)p 1.26( 55.84%)
    35. (0.00000) RY*( 8) H   2           s( 11.55%)p 7.66( 88.45%)
    36. (0.00000) BD*( 1)Cl   1 - H   2  
                ( 35.60%)   0.5967*Cl   1 s( 14.85%)p 5.71( 84.71%)d 0.03(  0.44%)
                ( 64.40%)  -0.8025* H   2 s( 99.37%)p 0.01(  0.63%)


 NHO Directionality and "Bond Bending" (deviations from line of nuclear centers)

         [Thresholds for printing:  angular deviation  >  1.0 degree]
                                    hybrid p-character > 25.0%
                                    orbital occupancy  >  0.10e

                                Line of Centers        Hybrid 1              Hybrid 2
                                ---------------  -------------------   ------------------
                NBO               Theta   Phi    Theta   Phi    Dev    Theta   Phi    Dev
 ========================================================================================
     8. LP (   2)Cl   1             --     --     90.0    0.0   --       --     --    --
     9. LP (   3)Cl   1             --     --     90.0   90.0   --       --     --    --


 Second Order Perturbation Theory Analysis of Fock Matrix in NBO Basis

     Threshold for printing:   0.25 kcal/mol
                                                                              E(2)  E(j)-E(i) F(i,j)
         Donor NBO (i)                     Acceptor NBO (j)                 kcal/mol   a.u.    a.u. 
 ===================================================================================================

 within unit  1
   3. CR (   2)Cl   1                / 30. RY*(   3) H   2                    0.70   10.55    0.109
   7. LP (   1)Cl   1                / 30. RY*(   3) H   2                    0.41    1.26    0.029
   8. LP (   2)Cl   1                / 28. RY*(   1) H   2                    0.76    1.24    0.039
   9. LP (   3)Cl   1                / 29. RY*(   2) H   2                    0.76    1.24    0.039


 Natural Bond Orbitals (Summary):

                                                            Principal Delocalizations
           NBO                        Occupancy    Energy   (geminal,vicinal,remote)
 ====================================================================================
 Molecular unit  1  (HCl)
     1. BD (   1)Cl   1 - H   2          1.00000    -0.65304   
     2. CR (   1)Cl   1                  1.00000  -100.64172   
     3. CR (   2)Cl   1                  0.99991   -10.18538  30(v)
     4. CR (   3)Cl   1                  1.00000    -7.22814   
     5. CR (   4)Cl   1                  1.00000    -7.22814   
     6. CR (   5)Cl   1                  0.99998    -7.23638   
     7. LP (   1)Cl   1                  0.99977    -0.89494  30(v)
     8. LP (   2)Cl   1                  0.99902    -0.34187  28(v)
     9. LP (   3)Cl   1                  0.99902    -0.34187  29(v)
    10. RY*(   1)Cl   1                  0.00000     1.22136   
    11. RY*(   2)Cl   1                  0.00000     0.24329   
    12. RY*(   3)Cl   1                  0.00000     0.51076   
    13. RY*(   4)Cl   1                  0.00000     0.29831   
    14. RY*(   5)Cl   1                  0.00000     0.51076   
    15. RY*(   6)Cl   1                  0.00000     0.29831   
    16. RY*(   7)Cl   1                  0.00000     0.65592   
    17. RY*(   8)Cl   1                  0.00000     0.32612   
    18. RY*(   9)Cl   1                  0.00000     0.46760   
    19. RY*(  10)Cl   1                  0.00000     0.96832   
    20. RY*(  11)Cl   1                  0.00000     0.48867   
    21. RY*(  12)Cl   1                  0.00000     1.07678   
    22. RY*(  13)Cl   1                  0.00000     0.48867   
    23. RY*(  14)Cl   1                  0.00000     1.07678   
    24. RY*(  15)Cl   1                  0.00000     0.46760   
    25. RY*(  16)Cl   1                  0.00000     0.96832   
    26. RY*(  17)Cl   1                  0.00000     0.86222   
    27. RY*(  18)Cl   1                  0.00000     1.07552   
    28. RY*(   1) H   2                  0.00098     0.89539   
    29. RY*(   2) H   2                  0.00098     0.89539   
    30. RY*(   3) H   2                  0.00031     0.36048   
    31. RY*(   4) H   2                  0.00003     0.82497   
    32. RY*(   5) H   2                  0.00000     0.89302   
    33. RY*(   6) H   2                  0.00000     0.89302   
    34. RY*(   7) H   2                  0.00000     1.12162   
    35. RY*(   8) H   2                  0.00000     0.46552   
    36. BD*(   1)Cl   1 - H   2          0.00000     0.18187   
       -------------------------------
              Total Lewis    8.99769  ( 99.9743%)
        Valence non-Lewis    0.00000  (  0.0000%)
        Rydberg non-Lewis    0.00231  (  0.0257%)
       -------------------------------
            Total unit  1    9.00000  (100.0000%)
           Charge unit  1    0.00000
 Leave Link  607 at Sat Aug  1 14:41:59 2020, MaxMem=   524288000 cpu:               1.9 elap:               0.3
 (Enter /home/ubuntu/g16/l701.exe)
 ... and contract with generalized density number  0.
 Compute integral second derivatives.
 Leave Link  701 at Sat Aug  1 14:41:59 2020, MaxMem=   524288000 cpu:               1.2 elap:               0.2
 (Enter /home/ubuntu/g16/l702.exe)
 L702 exits ... SP integral derivatives will be done elsewhere.
 Leave Link  702 at Sat Aug  1 14:41:59 2020, MaxMem=   524288000 cpu:               0.2 elap:               0.0
 (Enter /home/ubuntu/g16/l703.exe)
 Integral derivatives from FoFJK, PRISM(SPDF).
 Compute integral second derivatives, UseDBF=F ICtDFT=           0.
 Calling FoFJK, ICntrl=    100127 FMM=F ISym2X=1 I1Cent= 0 IOpClX= 1 NMat=1 NMatS=1 NMatT=0.
 FoFJK:  IHMeth= 1 ICntrl=  100127 DoSepK=F KAlg= 0 I1Cent=           0 FoldK=F
 IRaf=         0 NMat=       1 IRICut=       1 DoRegI=T DoRafI=F ISym2E= 1 IDoP0=0 IntGTp=1.
 FoFCou: FMM=F IPFlag=           0 FMFlag=      100000 FMFlg1=         800
         NFxFlg=           0 DoJE=F BraDBF=F KetDBF=F FulRan=T
         wScrn=  0.000000 ICntrl=    100127 IOpCl=  1 I1Cent=           0 NGrid=           0
         NMat0=    1 NMatS0=      1 NMatT0=    0 NMatD0=    1 NMtDS0=    0 NMtDT0=    0
 Petite list used in FoFCou.
 Leave Link  703 at Sat Aug  1 14:42:00 2020, MaxMem=   524288000 cpu:               3.0 elap:               0.4
 (Enter /home/ubuntu/g16/l716.exe)
 Dipole        = 0.00000000D+00 0.00000000D+00-4.53951961D-01
 Polarizability= 1.55931939D+01 2.19564318D-12 1.55931939D+01
                -2.29190660D-11 9.66265781D-13 1.81166210D+01
 Full mass-weighted force constant matrix:
 Low frequencies ---   -0.0029   -0.0029    0.0024   29.0750   29.0750 2924.0155
 Diagonal vibrational polarizability:
        0.0000000       0.0000000       0.1190873
 Harmonic frequencies (cm**-1), IR intensities (KM/Mole), Raman scattering
 activities (A**4/AMU), depolarization ratios for plane and unpolarized
 incident light, reduced masses (AMU), force constants (mDyne/A),
 and normal coordinates:
                      1
                     SG
 Frequencies --   2924.0155
 Red. masses --      1.0360
 Frc consts  --      5.2188
 IR Inten    --     37.8348
  Atom  AN      X      Y      Z
     1  17    -0.00  -0.00  -0.03
     2   1    -0.00  -0.00   1.00

 -------------------
 - Thermochemistry -
 -------------------
 Temperature   298.150 Kelvin.  Pressure   1.00000 Atm.
 Atom     1 has atomic number 17 and mass  34.96885
 Atom     2 has atomic number  1 and mass   1.00783
 Molecular mass:    35.97668 amu.
 Principal axes and moments of inertia in atomic units:
                           1         2         3
     Eigenvalues --     0.00000   5.86546   5.86546
           X            0.00000  -0.00000   1.00000
           Y            0.00000   1.00000   0.00000
           Z            1.00000   0.00000   0.00000
 This molecule is a prolate symmetric top.
 Rotational symmetry number  1.
 Rotational temperature (Kelvin)     14.76677
 Rotational constant (GHZ):         307.689505
 Zero-point vibrational energy      17489.5 (Joules/Mol)
                                    4.18009 (Kcal/Mol)
 Vibrational temperatures:   4207.01
          (Kelvin)
 
 Zero-point correction=                           0.006661 (Hartree/Particle)
 Thermal correction to Energy=                    0.009022
 Thermal correction to Enthalpy=                  0.009966
 Thermal correction to Gibbs Free Energy=        -0.011239
 Sum of electronic and zero-point Energies=           -460.821042
 Sum of electronic and thermal Energies=              -460.818681
 Sum of electronic and thermal Enthalpies=            -460.817737
 Sum of electronic and thermal Free Energies=         -460.838942
 
                     E (Thermal)             CV                S
                      KCal/Mol        Cal/Mol-Kelvin    Cal/Mol-Kelvin
 Total                    5.661              4.968             44.630
 Electronic               0.000              0.000              0.000
 Translational            0.889              2.981             36.671
 Rotational               0.592              1.987              7.959
 Vibrational              4.180              0.000              0.000
                       Q            Log10(Q)             Ln(Q)
 Total Bot       0.147777D+06          5.169608         11.903462
 Total V=0       0.171252D+09          8.233635         18.958646
 Vib (Bot)       0.862925D-03         -3.064027         -7.055183
 Vib (V=0)       0.100000D+01          0.000000          0.000001
 Electronic      0.100000D+01          0.000000          0.000000
 Translational   0.848175D+07          6.928485         15.953427
 Rotational      0.201906D+02          1.305149          3.005217
 ***** Axes restored to original set *****
 -------------------------------------------------------------------
 Center     Atomic                   Forces (Hartrees/Bohr)
 Number     Number              X              Y              Z
 -------------------------------------------------------------------
      1       17           0.000077723   -0.000000000   -0.000000000
      2        1          -0.000077723   -0.000000000   -0.000000000
 -------------------------------------------------------------------
 Cartesian Forces:  Max     0.000077723 RMS     0.000044873
 Force constants in Cartesian coordinates: 
                1             2             3             4             5 
      1  0.316954D+00
      2  0.000000D+00  0.313384D-04
      3  0.000000D+00  0.000000D+00  0.313384D-04
      4 -0.316954D+00  0.000000D+00  0.000000D+00  0.316954D+00
      5  0.000000D+00 -0.313384D-04  0.000000D+00  0.000000D+00  0.313384D-04
      6  0.000000D+00  0.000000D+00 -0.313384D-04  0.000000D+00  0.000000D+00
                6 
      6  0.313384D-04
 FormGI is forming the generalized inverse of G from B-inverse, IUseBI=4.
 Force constants in internal coordinates: 
                1 
      1  0.316954D+00
 Leave Link  716 at Sat Aug  1 14:42:00 2020, MaxMem=   524288000 cpu:               0.1 elap:               0.0
 (Enter /home/ubuntu/g16/l103.exe)

 GradGradGradGradGradGradGradGradGradGradGradGradGradGradGradGradGradGrad
 Berny optimization.
 Red2BG is reusing G-inverse.
 Internal  Forces:  Max     0.000077723 RMS     0.000077723
 Search for a local minimum.
 Step number   1 out of a maximum of    2
 All quantities printed in internal units (Hartrees-Bohrs-Radians)
 Second derivative matrix not updated -- analytic derivatives used.
 The second derivative matrix:
                          R1
           R1           0.31695
 ITU=  0
     Eigenvalues ---    0.31695
 Angle between quadratic step and forces=   0.00 degrees.
 Linear search not attempted -- first point.
 Iteration  1 RMS(Cart)=  0.00017339 RMS(Int)=  0.00000000
 Iteration  2 RMS(Cart)=  0.00000000 RMS(Int)=  0.00000000
 ITry= 1 IFail=0 DXMaxC= 1.23D-04 DCOld= 1.00D+10 DXMaxT= 3.00D-01 DXLimC= 3.00D+00 Rises=F
 ClnCor:  largest displacement from symmetrization is 0.00D+00 for atom     0.
 Variable       Old X    -DE/DX   Delta X   Delta X   Delta X     New X
                                 (Linear)    (Quad)   (Total)
    R1        2.44697   0.00008   0.00000   0.00025   0.00025   2.44721
         Item               Value     Threshold  Converged?
 Maximum Force            0.000078     0.000450     YES
 RMS     Force            0.000078     0.000300     YES
 Maximum Displacement     0.000123     0.001800     YES
 RMS     Displacement     0.000173     0.001200     YES
 Predicted change in Energy=-9.529442D-09
 Optimization completed.
    -- Stationary point found.
                           ----------------------------
                           !   Optimized Parameters   !
                           ! (Angstroms and Degrees)  !
 --------------------------                            --------------------------
 ! Name  Definition              Value          Derivative Info.                !
 --------------------------------------------------------------------------------
 ! R1    R(1,2)                  1.2949         -DE/DX =    0.0001              !
 --------------------------------------------------------------------------------
 GradGradGradGradGradGradGradGradGradGradGradGradGradGradGradGradGradGrad

 Leave Link  103 at Sat Aug  1 14:42:00 2020, MaxMem=   524288000 cpu:               0.1 elap:               0.0
 (Enter /home/ubuntu/g16/l9999.exe)

 ----------------------------------------------------------------------

 Electric dipole moment (input orientation):
 (Debye = 10**-18 statcoulomb cm , SI units = C m)
                  (au)            (Debye)         (10**-30 SI)
   Tot        0.453952D+00      0.115383D+01      0.384877D+01
   x         -0.453952D+00     -0.115383D+01     -0.384877D+01
   y          0.000000D+00      0.000000D+00      0.000000D+00
   z          0.000000D+00      0.000000D+00      0.000000D+00

 Dipole polarizability, Alpha (input orientation).
 (esu units = cm**3 , SI units = C**2 m**2 J**-1)
 Alpha(0;0):
               (au)            (10**-24 esu)      (10**-40 SI)
   iso        0.164343D+02      0.243532D+01      0.270966D+01
   aniso      0.252343D+01      0.373933D+00      0.416057D+00
   xx         0.181166D+02      0.268461D+01      0.298703D+01
   yx         0.000000D+00      0.000000D+00      0.000000D+00
   yy         0.155932D+02      0.231067D+01      0.257097D+01
   zx         0.000000D+00      0.000000D+00      0.000000D+00
   zy         0.000000D+00      0.000000D+00      0.000000D+00
   zz         0.155932D+02      0.231067D+01      0.257097D+01

 ----------------------------------------------------------------------

 Dipole orientation:
    17          0.00755890         -0.99720848          1.41268366
     1          0.00755890         -0.99720848          3.85965223

 Electric dipole moment (dipole orientation):
 (Debye = 10**-18 statcoulomb cm , SI units = C m)
                  (au)            (Debye)         (10**-30 SI)
   Tot        0.453952D+00      0.115383D+01      0.384877D+01
   x          0.000000D+00      0.000000D+00      0.000000D+00
   y          0.000000D+00      0.000000D+00      0.000000D+00
   z          0.453952D+00      0.115383D+01      0.384877D+01

 Dipole polarizability, Alpha (dipole orientation).
 (esu units = cm**3 , SI units = C**2 m**2 J**-1)
 Alpha(0;0):
               (au)            (10**-24 esu)      (10**-40 SI)
   iso        0.164343D+02      0.243532D+01      0.270966D+01
   aniso      0.252343D+01      0.373933D+00      0.416057D+00
   xx         0.155932D+02      0.231067D+01      0.257097D+01
   yx         0.000000D+00      0.000000D+00      0.000000D+00
   yy         0.155932D+02      0.231067D+01      0.257097D+01
   zx         0.000000D+00      0.000000D+00      0.000000D+00
   zy         0.000000D+00      0.000000D+00      0.000000D+00
   zz         0.181166D+02      0.268461D+01      0.298703D+01

 ----------------------------------------------------------------------
 1\1\GINC-LC06-1-2\Freq\UB3LYP\Aug-CC-pVDZ\Cl1H1\UBUNTU\01-Aug-2020\0\\
 #P Geom=AllCheck Guess=TCheck SCRF=Check GenChk UB3LYP/Aug-CC-pVDZ Fre
 q\\HCl_UB3LYP-aug-cc-pVDZ\\0,1\Cl,-0.74756,-0.5277,0.004\H,-2.04244,-0
 .5277,0.004\\Version=ES64L-G16RevA.03\State=1-SG\HF=-460.827703\S2=0.\
 S2-1=0.\S2A=0.\RMSD=0.000e+00\RMSF=4.487e-05\ZeroPoint=0.0066614\Therm
 al=0.0090219\Dipole=-0.453952,0.,0.\DipoleDeriv=-0.1949813,0.,0.,0.,-0
 .1855148,0.,0.,0.,-0.1855148,0.1949813,0.,0.,0.,0.1855148,0.,0.,0.,0.1
 855148\Polar=18.116621,0.,15.5931939,0.,0.,15.5931939\Quadrupole=1.806
 7423,-0.9033711,-0.9033711,0.,0.,0.\PG=C*V [C*(H1Cl1)]\NImag=0\\0.3169
 5402,0.,0.00003134,0.,0.,0.00003134,-0.31695402,0.,0.,0.31695402,0.,-0
 .00003134,0.,0.,0.00003134,0.,0.,-0.00003134,0.,0.,0.00003134\\-0.0000
 7772,0.,0.,0.00007772,0.,0.\\\@


 IT IS THE BEHAVIOR AND DISTRIBUTION OF THE ELECTRONS 
 AROUND THE NUCLEUS THAT GIVES THE FUNDAMENTAL 
 CHARACTER OF AN ATOM:  IT MUST BE THE SAME FOR MOLECULES.

                               -- C. A. COULSON, 1951
 Job cpu time:       0 days  0 hours  0 minutes 19.2 seconds.
 Elapsed time:       0 days  0 hours  0 minutes  3.0 seconds.
 File lengths (MBytes):  RWF=      6 Int=      0 D2E=      0 Chk=      1 Scr=      1
 Normal termination of Gaussian 16 at Sat Aug  1 14:42:00 2020.
