 Entering Gaussian System, Link 0=/home/ubuntu/g16/g16
 Input=HCOO-_UB3LYP-aug-cc-pVDZ-Opt.gjf
 Output=HCOO-_UB3LYP-aug-cc-pVDZ-Opt.log
 Initial command:
 /home/ubuntu/g16/l1.exe "/home/ubuntu/g16/Gau-4114.inp" -scrdir="/home/ubuntu/g16/"
 Entering Link 1 = /home/ubuntu/g16/l1.exe PID=      4116.
  
 Copyright (c) 1988,1990,1992,1993,1995,1998,2003,2009,2016,
            Gaussian, Inc.  All Rights Reserved.
  
 This is part of the Gaussian(R) 16 program.  It is based on
 the Gaussian(R) 09 system (copyright 2009, Gaussian, Inc.),
 the Gaussian(R) 03 system (copyright 2003, Gaussian, Inc.),
 the Gaussian(R) 98 system (copyright 1998, Gaussian, Inc.),
 the Gaussian(R) 94 system (copyright 1995, Gaussian, Inc.),
 the Gaussian 92(TM) system (copyright 1992, Gaussian, Inc.),
 the Gaussian 90(TM) system (copyright 1990, Gaussian, Inc.),
 the Gaussian 88(TM) system (copyright 1988, Gaussian, Inc.),
 the Gaussian 86(TM) system (copyright 1986, Carnegie Mellon
 University), and the Gaussian 82(TM) system (copyright 1983,
 Carnegie Mellon University). Gaussian is a federally registered
 trademark of Gaussian, Inc.
  
 This software contains proprietary and confidential information,
 including trade secrets, belonging to Gaussian, Inc.
  
 This software is provided under written license and may be
 used, copied, transmitted, or stored only in accord with that
 written license.
  
 The following legend is applicable only to US Government
 contracts under FAR:
  
                    RESTRICTED RIGHTS LEGEND
  
 Use, reproduction and disclosure by the US Government is
 subject to restrictions as set forth in subparagraphs (a)
 and (c) of the Commercial Computer Software - Restricted
 Rights clause in FAR 52.227-19.
  
 Gaussian, Inc.
 340 Quinnipiac St., Bldg. 40, Wallingford CT 06492
  
  
 ---------------------------------------------------------------
 Warning -- This program may not be used in any manner that
 competes with the business of Gaussian, Inc. or will provide
 assistance to any competitor of Gaussian, Inc.  The licensee
 of this program is prohibited from giving any competitor of
 Gaussian, Inc. access to this program.  By using this program,
 the user acknowledges that Gaussian, Inc. is engaged in the
 business of creating and licensing software in the field of
 computational chemistry and represents and warrants to the
 licensee that it is not a competitor of Gaussian, Inc. and that
 it will not use this program in any manner prohibited above.
 ---------------------------------------------------------------
  

 Cite this work as:
 Gaussian 16, Revision A.03,
 M. J. Frisch, G. W. Trucks, H. B. Schlegel, G. E. Scuseria, 
 M. A. Robb, J. R. Cheeseman, G. Scalmani, V. Barone, 
 G. A. Petersson, H. Nakatsuji, X. Li, M. Caricato, A. V. Marenich, 
 J. Bloino, B. G. Janesko, R. Gomperts, B. Mennucci, H. P. Hratchian, 
 J. V. Ortiz, A. F. Izmaylov, J. L. Sonnenberg, D. Williams-Young, 
 F. Ding, F. Lipparini, F. Egidi, J. Goings, B. Peng, A. Petrone, 
 T. Henderson, D. Ranasinghe, V. G. Zakrzewski, J. Gao, N. Rega, 
 G. Zheng, W. Liang, M. Hada, M. Ehara, K. Toyota, R. Fukuda, 
 J. Hasegawa, M. Ishida, T. Nakajima, Y. Honda, O. Kitao, H. Nakai, 
 T. Vreven, K. Throssell, J. A. Montgomery, Jr., J. E. Peralta, 
 F. Ogliaro, M. J. Bearpark, J. J. Heyd, E. N. Brothers, K. N. Kudin, 
 V. N. Staroverov, T. A. Keith, R. Kobayashi, J. Normand, 
 K. Raghavachari, A. P. Rendell, J. C. Burant, S. S. Iyengar, 
 J. Tomasi, M. Cossi, J. M. Millam, M. Klene, C. Adamo, R. Cammi, 
 J. W. Ochterski, R. L. Martin, K. Morokuma, O. Farkas, 
 J. B. Foresman, and D. J. Fox, Gaussian, Inc., Wallingford CT, 2016.
 
 ******************************************
 Gaussian 16:  ES64L-G16RevA.03 25-Dec-2016
                 3-Aug-2020 
 ******************************************
 %chk=HCOO-_UB3LYP-aug-cc-pVDZ-Opt.chk
 %mem=500MW
 %nproc=7
 Will use up to    7 processors via shared memory.
 ----------------------------------------------------------------------
 #p opt=(maxcycles=777) freq ub3lyp/aug-cc-pVDZ pop=(Bonding,AllOrbital
 s,mk,no,nboread)
 ----------------------------------------------------------------------
 1/6=777,18=20,19=15,26=3,38=1/1,3;
 2/9=110,12=2,17=6,18=5,40=1/2;
 3/5=16,7=10,11=2,25=1,30=1,71=1,74=-5,116=2/1,2,3;
 4//1;
 5/5=2,38=5/2;
 6/7=2,8=2,9=2,10=2,15=8,20=1,22=-1,27=20,28=1,31=1,40=2,96=-1/1,2,7;
 7//1,2,3,16;
 1/6=777,18=20,19=15,26=3/3(2);
 2/9=110/2;
 99//99;
 2/9=110/2;
 3/5=16,7=10,11=2,25=1,30=1,71=1,74=-5,116=2/1,2,3;
 4/5=5,16=3,69=1/1;
 5/5=2,38=5/2;
 7//1,2,3,16;
 1/6=777,18=20,19=15,26=3/3(-5);
 2/9=110/2;
 6/7=2,8=2,9=2,10=2,15=8,19=2,20=1,22=-1,27=20,28=1,31=1,40=2,96=-1/1,2,7;
 99/9=1/99;
 Leave Link    1 at Mon Aug  3 15:40:27 2020, MaxMem=   524288000 cpu:               0.3 elap:               0.0
 (Enter /home/ubuntu/g16/l101.exe)
 ------------------------
 HCOO-_UB3LYP-aug-cc-pVDZ
 ------------------------
 Symbolic Z-matrix:
 Charge = -1 Multiplicity = 1
 C                     4.5971    0.1893    3.3044 
 O                     5.3255   -0.4232    4.1324 
 O                     4.1948    1.3849    3.3444 
 H                     4.2731   -0.3708    2.4522 
 
 ITRead=  0  0  0  0
 MicOpt= -1 -1 -1 -1
 NAtoms=      4 NQM=        4 NQMF=       0 NMMI=      0 NMMIF=      0
                NMic=       0 NMicF=      0.
                    Isotopes and Nuclear Properties:
 (Nuclear quadrupole moments (NQMom) in fm**2, nuclear magnetic moments (NMagM)
  in nuclear magnetons)

  Atom         1           2           3           4
 IAtWgt=          12          16          16           1
 AtmWgt=  12.0000000  15.9949146  15.9949146   1.0078250
 NucSpn=           0           0           0           1
 AtZEff=  -0.0000000  -0.0000000  -0.0000000  -0.0000000
 NQMom=    0.0000000   0.0000000   0.0000000   0.0000000
 NMagM=    0.0000000   0.0000000   0.0000000   2.7928460
 AtZNuc=   6.0000000   8.0000000   8.0000000   1.0000000
 Leave Link  101 at Mon Aug  3 15:40:27 2020, MaxMem=   524288000 cpu:               1.3 elap:               0.2
 (Enter /home/ubuntu/g16/l103.exe)

 GradGradGradGradGradGradGradGradGradGradGradGradGradGradGradGradGradGrad
 Berny optimization.
 Initialization pass.
                           ----------------------------
                           !    Initial Parameters    !
                           ! (Angstroms and Degrees)  !
 --------------------------                            --------------------------
 ! Name  Definition              Value          Derivative Info.                !
 --------------------------------------------------------------------------------
 ! R1    R(1,2)                  1.2615         estimate D2E/DX2                !
 ! R2    R(1,3)                  1.2621         estimate D2E/DX2                !
 ! R3    R(1,4)                  1.07           estimate D2E/DX2                !
 ! A1    A(2,1,3)              128.5511         estimate D2E/DX2                !
 ! A2    A(2,1,4)              116.324          estimate D2E/DX2                !
 ! A3    A(3,1,4)              115.1248         estimate D2E/DX2                !
 ! D1    D(2,1,4,3)           -179.9753         estimate D2E/DX2                !
 --------------------------------------------------------------------------------
 Trust Radius=3.00D-01 FncErr=1.00D-07 GrdErr=1.00D-06 EigMax=2.50D+02 EigMin=1.00D-04
 Number of steps in this run=    100 maximum allowed number of steps=    100.
 GradGradGradGradGradGradGradGradGradGradGradGradGradGradGradGradGradGrad

 Leave Link  103 at Mon Aug  3 15:40:27 2020, MaxMem=   524288000 cpu:               0.1 elap:               0.0
 (Enter /home/ubuntu/g16/l202.exe)
                          Input orientation:                          
 ---------------------------------------------------------------------
 Center     Atomic      Atomic             Coordinates (Angstroms)
 Number     Number       Type             X           Y           Z
 ---------------------------------------------------------------------
      1          6           0        4.597100    0.189300    3.304400
      2          8           0        5.325500   -0.423200    4.132400
      3          8           0        4.194800    1.384900    3.344400
      4          1           0        4.273100   -0.370800    2.452200
 ---------------------------------------------------------------------
                    Distance matrix (angstroms):
                    1          2          3          4
     1  C    0.000000
     2  O    1.261470   0.000000
     3  O    1.262103   2.273467   0.000000
     4  H    1.070015   1.983271   1.970948   0.000000
 Stoichiometry    CHO2(1-)
 Framework group  C1[X(CHO2)]
 Deg. of freedom     6
 Full point group                 C1      NOp   1
 Largest Abelian subgroup         C1      NOp   1
 Largest concise Abelian subgroup C1      NOp   1
                         Standard orientation:                         
 ---------------------------------------------------------------------
 Center     Atomic      Atomic             Coordinates (Angstroms)
 Number     Number       Type             X           Y           Z
 ---------------------------------------------------------------------
      1          6           0        0.000448    0.334468   -0.000087
      2          8           0        1.137284   -0.212259    0.000022
      3          8           0       -1.136182   -0.214144    0.000022
      4          1           0       -0.011507    1.404417    0.000178
 ---------------------------------------------------------------------
 Rotational constants (GHZ):         106.5895973          12.2260647          10.9680096
 Leave Link  202 at Mon Aug  3 15:40:27 2020, MaxMem=   524288000 cpu:               0.0 elap:               0.0
 (Enter /home/ubuntu/g16/l301.exe)
 Standard basis: Aug-CC-pVDZ (5D, 7F)
 Ernie: Thresh=  0.10000D-02 Tol=  0.10000D-05 Strict=F.
 Ernie:  6 primitive shells out of 82 were deleted.
 There are    84 symmetry adapted cartesian basis functions of A   symmetry.
 There are    78 symmetry adapted basis functions of A   symmetry.
    78 basis functions,   140 primitive gaussians,    84 cartesian basis functions
    12 alpha electrons       12 beta electrons
       nuclear repulsion energy        62.4077372591 Hartrees.
 IExCor=  402 DFT=T Ex+Corr=B3LYP ExCW=0 ScaHFX=  0.200000
 ScaDFX=  0.800000  0.720000  1.000000  0.810000 ScalE2=  1.000000  1.000000
 IRadAn=      5 IRanWt=     -1 IRanGd=            0 ICorTp=0 IEmpDi=  4
 NAtoms=    4 NActive=    4 NUniq=    4 SFac= 1.00D+00 NAtFMM=   60 NAOKFM=F Big=F
 Integral buffers will be    131072 words long.
 Raffenetti 2 integral format.
 Two-electron integral symmetry is turned on.
 Leave Link  301 at Mon Aug  3 15:40:27 2020, MaxMem=   524288000 cpu:               0.3 elap:               0.0
 (Enter /home/ubuntu/g16/l302.exe)
 NPDir=0 NMtPBC=     1 NCelOv=     1 NCel=       1 NClECP=     1 NCelD=      1
         NCelK=      1 NCelE2=     1 NClLst=     1 CellRange=     0.0.
 One-electron integrals computed using PRISM.
 One-electron integral symmetry used in STVInt
 NBasis=    78 RedAO= T EigKep=  7.35D-04  NBF=    78
 NBsUse=    78 1.00D-06 EigRej= -1.00D+00 NBFU=    78
 Precomputing XC quadrature grid using
 IXCGrd= 4 IRadAn=           5 IRanWt=          -1 IRanGd=           0 AccXCQ= 0.00D+00.
 Generated NRdTot=       0 NPtTot=           0 NUsed=           0 NTot=          32
 NSgBfM=    84    84    84    84    84 MxSgAt=     4 MxSgA2=     4.
 Leave Link  302 at Mon Aug  3 15:40:27 2020, MaxMem=   524288000 cpu:               1.1 elap:               0.2
 (Enter /home/ubuntu/g16/l303.exe)
 DipDrv:  MaxL=1.
 Leave Link  303 at Mon Aug  3 15:40:27 2020, MaxMem=   524288000 cpu:               0.2 elap:               0.0
 (Enter /home/ubuntu/g16/l401.exe)
 ExpMin= 2.97D-02 ExpMax= 1.17D+04 ExpMxC= 4.01D+02 IAcc=3 IRadAn=         5 AccDes= 0.00D+00
 Harris functional with IExCor=  402 and IRadAn=       5 diagonalized for initial guess.
 HarFok:  IExCor=  402 AccDes= 0.00D+00 IRadAn=         5 IDoV= 1 UseB2=F ITyADJ=14
 ICtDFT=  3500011 ScaDFX=  1.000000  1.000000  1.000000  1.000000
 FoFCou: FMM=F IPFlag=           0 FMFlag=      100000 FMFlg1=           0
         NFxFlg=           0 DoJE=T BraDBF=F KetDBF=T FulRan=T
         wScrn=  0.000000 ICntrl=       500 IOpCl=  0 I1Cent=   200000004 NGrid=           0
         NMat0=    1 NMatS0=      1 NMatT0=    0 NMatD0=    1 NMtDS0=    0 NMtDT0=    0
 Petite list used in FoFCou.
 Harris En= -189.424141230313    
 JPrj=0 DoOrth=F DoCkMO=F.
 Initial guess <Sx>= 0.0000 <Sy>= 0.0000 <Sz>= 0.0000 <S**2>=-0.0000 S=-0.0000
 Leave Link  401 at Mon Aug  3 15:40:27 2020, MaxMem=   524288000 cpu:               2.4 elap:               0.3
 (Enter /home/ubuntu/g16/l502.exe)
 Keep R1 and R2 ints in memory in canonical form, NReq=15856523.
 FoFCou: FMM=F IPFlag=           0 FMFlag=           0 FMFlg1=           0
         NFxFlg=           0 DoJE=F BraDBF=F KetDBF=F FulRan=T
         wScrn=  0.000000 ICntrl=       600 IOpCl=  0 I1Cent=           0 NGrid=           0
         NMat0=    1 NMatS0=   3081 NMatT0=    0 NMatD0=    1 NMtDS0=    0 NMtDT0=    0
 Symmetry not used in FoFCou.
 Two-electron integral symmetry not used.
 UHF open shell SCF:
 Using DIIS extrapolation, IDIIS=  1040.
 NGot=   524288000 LenX=   514776756 LenY=   514769259
 Requested convergence on RMS density matrix=1.00D-08 within 128 cycles.
 Requested convergence on MAX density matrix=1.00D-06.
 Requested convergence on             energy=1.00D-06.
 No special actions if energy rises.

 Cycle   1  Pass 1  IDiag  1:
 E= -189.083404745123    
 DIIS: error= 4.95D-02 at cycle   1 NSaved=   1.
 NSaved= 1 IEnMin= 1 EnMin= -189.083404745123     IErMin= 1 ErrMin= 4.95D-02
 ErrMax= 4.95D-02  0.00D+00 EMaxC= 1.00D-01 BMatC= 7.24D-01 BMatP= 7.24D-01
 IDIUse=3 WtCom= 5.05D-01 WtEn= 4.95D-01
 Coeff-Com:  0.100D+01
 Coeff-En:   0.100D+01
 Coeff:      0.100D+01
 Gap=     0.219 Goal=   None    Shift=    0.000
 Gap=     0.219 Goal=   None    Shift=    0.000
 GapD=    0.219 DampG=1.000 DampE=0.500 DampFc=0.5000 IDamp=-1.
 Damping current iteration by 5.00D-01
 RMSDP=4.99D-01 MaxDP=2.25D+01              OVMax= 8.08D-01

 Cycle   2  Pass 1  IDiag  1:
 E= -188.844085542991     Delta-E=        0.239319202132 Rises=F Damp=T
 DIIS: error= 4.18D-02 at cycle   2 NSaved=   2.
 NSaved= 2 IEnMin= 1 EnMin= -189.083404745123     IErMin= 2 ErrMin= 4.18D-02
 ErrMax= 4.18D-02  0.00D+00 EMaxC= 1.00D-01 BMatC= 5.18D-01 BMatP= 7.24D-01
 IDIUse=3 WtCom= 5.82D-01 WtEn= 4.18D-01
 Coeff-Com:  0.455D+00 0.545D+00
 Coeff-En:   0.758D+00 0.242D+00
 Coeff:      0.581D+00 0.419D+00
 Gap=    -0.058 Goal=   None    Shift=    0.000
 Gap=    -0.058 Goal=   None    Shift=    0.000
 RMSDP=2.49D-01 MaxDP=1.13D+01 DE= 2.39D-01 OVMax= 7.16D-01

 Cycle   3  Pass 1  IDiag  1:
 E= -189.220729713302     Delta-E=       -0.376644170310 Rises=F Damp=F
 DIIS: error= 1.25D-02 at cycle   3 NSaved=   3.
 NSaved= 3 IEnMin= 3 EnMin= -189.220729713302     IErMin= 3 ErrMin= 1.25D-02
 ErrMax= 1.25D-02  0.00D+00 EMaxC= 1.00D-01 BMatC= 8.64D-02 BMatP= 5.18D-01
 IDIUse=3 WtCom= 8.75D-01 WtEn= 1.25D-01
 Coeff-Com:  0.298D+00 0.282D+00 0.420D+00
 Coeff-En:   0.000D+00 0.000D+00 0.100D+01
 Coeff:      0.260D+00 0.247D+00 0.493D+00
 Gap=     0.203 Goal=   None    Shift=    0.000
 Gap=     0.203 Goal=   None    Shift=    0.000
 RMSDP=2.08D-03 MaxDP=5.81D-02 DE=-3.77D-01 OVMax= 7.82D-02

 Cycle   4  Pass 1  IDiag  1:
 E= -189.227116905285     Delta-E=       -0.006387191983 Rises=F Damp=F
 DIIS: error= 9.85D-03 at cycle   4 NSaved=   4.
 NSaved= 4 IEnMin= 4 EnMin= -189.227116905285     IErMin= 4 ErrMin= 9.85D-03
 ErrMax= 9.85D-03  0.00D+00 EMaxC= 1.00D-01 BMatC= 5.32D-02 BMatP= 8.64D-02
 IDIUse=3 WtCom= 9.01D-01 WtEn= 9.85D-02
 Coeff-Com:  0.243D-01 0.666D-01 0.384D+00 0.526D+00
 Coeff-En:   0.000D+00 0.000D+00 0.408D+00 0.592D+00
 Coeff:      0.219D-01 0.601D-01 0.386D+00 0.532D+00
 Gap=     0.165 Goal=   None    Shift=    0.000
 Gap=     0.165 Goal=   None    Shift=    0.000
 RMSDP=1.21D-03 MaxDP=2.70D-02 DE=-6.39D-03 OVMax= 3.50D-02

 Cycle   5  Pass 1  IDiag  1:
 E= -189.237829769761     Delta-E=       -0.010712864477 Rises=F Damp=F
 DIIS: error= 8.09D-04 at cycle   5 NSaved=   5.
 NSaved= 5 IEnMin= 5 EnMin= -189.237829769761     IErMin= 5 ErrMin= 8.09D-04
 ErrMax= 8.09D-04  0.00D+00 EMaxC= 1.00D-01 BMatC= 4.16D-04 BMatP= 5.32D-02
 IDIUse=3 WtCom= 9.92D-01 WtEn= 8.09D-03
 Coeff-Com: -0.895D-02 0.126D-01 0.613D-01 0.138D+00 0.797D+00
 Coeff-En:   0.000D+00 0.000D+00 0.000D+00 0.000D+00 0.100D+01
 Coeff:     -0.888D-02 0.125D-01 0.608D-01 0.136D+00 0.799D+00
 Gap=     0.166 Goal=   None    Shift=    0.000
 Gap=     0.166 Goal=   None    Shift=    0.000
 RMSDP=2.34D-04 MaxDP=3.26D-03 DE=-1.07D-02 OVMax= 3.84D-03

 Cycle   6  Pass 1  IDiag  1:
 E= -189.237901945506     Delta-E=       -0.000072175745 Rises=F Damp=F
 DIIS: error= 5.78D-04 at cycle   6 NSaved=   6.
 NSaved= 6 IEnMin= 6 EnMin= -189.237901945506     IErMin= 6 ErrMin= 5.78D-04
 ErrMax= 5.78D-04  0.00D+00 EMaxC= 1.00D-01 BMatC= 9.77D-05 BMatP= 4.16D-04
 IDIUse=3 WtCom= 9.94D-01 WtEn= 5.78D-03
 Coeff-Com: -0.448D-02-0.314D-03-0.465D-02 0.137D-01 0.371D+00 0.625D+00
 Coeff-En:   0.000D+00 0.000D+00 0.000D+00 0.000D+00 0.113D+00 0.887D+00
 Coeff:     -0.445D-02-0.313D-03-0.462D-02 0.136D-01 0.369D+00 0.626D+00
 Gap=     0.165 Goal=   None    Shift=    0.000
 Gap=     0.165 Goal=   None    Shift=    0.000
 RMSDP=1.03D-04 MaxDP=2.09D-03 DE=-7.22D-05 OVMax= 2.02D-03

 Cycle   7  Pass 1  IDiag  1:
 E= -189.237922987142     Delta-E=       -0.000021041636 Rises=F Damp=F
 DIIS: error= 1.36D-04 at cycle   7 NSaved=   7.
 NSaved= 7 IEnMin= 7 EnMin= -189.237922987142     IErMin= 7 ErrMin= 1.36D-04
 ErrMax= 1.36D-04  0.00D+00 EMaxC= 1.00D-01 BMatC= 8.71D-06 BMatP= 9.77D-05
 IDIUse=3 WtCom= 9.99D-01 WtEn= 1.36D-03
 Coeff-Com:  0.659D-03-0.321D-03-0.573D-02-0.424D-02 0.743D-01 0.271D+00
 Coeff-Com:  0.665D+00
 Coeff-En:   0.000D+00 0.000D+00 0.000D+00 0.000D+00 0.000D+00 0.000D+00
 Coeff-En:   0.100D+01
 Coeff:      0.658D-03-0.321D-03-0.573D-02-0.423D-02 0.742D-01 0.270D+00
 Coeff:      0.665D+00
 Gap=     0.165 Goal=   None    Shift=    0.000
 Gap=     0.165 Goal=   None    Shift=    0.000
 RMSDP=2.35D-05 MaxDP=5.30D-04 DE=-2.10D-05 OVMax= 4.02D-04

 Cycle   8  Pass 1  IDiag  1:
 E= -189.237925210911     Delta-E=       -0.000002223769 Rises=F Damp=F
 DIIS: error= 2.01D-05 at cycle   8 NSaved=   8.
 NSaved= 8 IEnMin= 8 EnMin= -189.237925210911     IErMin= 8 ErrMin= 2.01D-05
 ErrMax= 2.01D-05  0.00D+00 EMaxC= 1.00D-01 BMatC= 1.51D-07 BMatP= 8.71D-06
 IDIUse=1 WtCom= 1.00D+00 WtEn= 0.00D+00
 Coeff-Com:  0.455D-03-0.144D-03-0.400D-03-0.540D-03 0.145D-02 0.250D-01
 Coeff-Com:  0.801D-01 0.894D+00
 Coeff:      0.455D-03-0.144D-03-0.400D-03-0.540D-03 0.145D-02 0.250D-01
 Coeff:      0.801D-01 0.894D+00
 Gap=     0.165 Goal=   None    Shift=    0.000
 Gap=     0.165 Goal=   None    Shift=    0.000
 RMSDP=5.45D-06 MaxDP=1.15D-04 DE=-2.22D-06 OVMax= 9.14D-05

 Cycle   9  Pass 1  IDiag  1:
 E= -189.237925245895     Delta-E=       -0.000000034983 Rises=F Damp=F
 DIIS: error= 4.11D-06 at cycle   9 NSaved=   9.
 NSaved= 9 IEnMin= 9 EnMin= -189.237925245895     IErMin= 9 ErrMin= 4.11D-06
 ErrMax= 4.11D-06  0.00D+00 EMaxC= 1.00D-01 BMatC= 1.22D-08 BMatP= 1.51D-07
 IDIUse=1 WtCom= 1.00D+00 WtEn= 0.00D+00
 Coeff-Com:  0.791D-04-0.511D-04 0.334D-03 0.387D-04-0.829D-03-0.552D-02
 Coeff-Com: -0.124D-01 0.169D-01 0.100D+01
 Coeff:      0.791D-04-0.511D-04 0.334D-03 0.387D-04-0.829D-03-0.552D-02
 Coeff:     -0.124D-01 0.169D-01 0.100D+01
 Gap=     0.165 Goal=   None    Shift=    0.000
 Gap=     0.165 Goal=   None    Shift=    0.000
 RMSDP=1.30D-06 MaxDP=2.83D-05 DE=-3.50D-08 OVMax= 2.60D-05

 Cycle  10  Pass 1  IDiag  1:
 E= -189.237925248689     Delta-E=       -0.000000002795 Rises=F Damp=F
 DIIS: error= 1.61D-06 at cycle  10 NSaved=  10.
 NSaved=10 IEnMin=10 EnMin= -189.237925248689     IErMin=10 ErrMin= 1.61D-06
 ErrMax= 1.61D-06  0.00D+00 EMaxC= 1.00D-01 BMatC= 8.37D-10 BMatP= 1.22D-08
 IDIUse=1 WtCom= 1.00D+00 WtEn= 0.00D+00
 Coeff-Com:  0.115D-04-0.472D-05 0.391D-04 0.354D-04 0.226D-03 0.364D-03
 Coeff-Com: -0.167D-02-0.264D-01-0.486D-01 0.108D+01
 Coeff:      0.115D-04-0.472D-05 0.391D-04 0.354D-04 0.226D-03 0.364D-03
 Coeff:     -0.167D-02-0.264D-01-0.486D-01 0.108D+01
 Gap=     0.165 Goal=   None    Shift=    0.000
 Gap=     0.165 Goal=   None    Shift=    0.000
 RMSDP=2.43D-07 MaxDP=5.30D-06 DE=-2.79D-09 OVMax= 6.07D-06

 Cycle  11  Pass 1  IDiag  1:
 E= -189.237925248909     Delta-E=       -0.000000000220 Rises=F Damp=F
 DIIS: error= 1.39D-07 at cycle  11 NSaved=  11.
 NSaved=11 IEnMin=11 EnMin= -189.237925248909     IErMin=11 ErrMin= 1.39D-07
 ErrMax= 1.39D-07  0.00D+00 EMaxC= 1.00D-01 BMatC= 8.25D-12 BMatP= 8.37D-10
 IDIUse=1 WtCom= 1.00D+00 WtEn= 0.00D+00
 Coeff-Com:  0.158D-05 0.161D-06-0.309D-05 0.734D-05 0.877D-04 0.335D-03
 Coeff-Com:  0.963D-04-0.432D-02-0.394D-01 0.186D+00 0.857D+00
 Coeff:      0.158D-05 0.161D-06-0.309D-05 0.734D-05 0.877D-04 0.335D-03
 Coeff:      0.963D-04-0.432D-02-0.394D-01 0.186D+00 0.857D+00
 Gap=     0.165 Goal=   None    Shift=    0.000
 Gap=     0.165 Goal=   None    Shift=    0.000
 RMSDP=3.14D-08 MaxDP=6.35D-07 DE=-2.20D-10 OVMax= 6.16D-07

 Cycle  12  Pass 1  IDiag  1:
 E= -189.237925248912     Delta-E=       -0.000000000003 Rises=F Damp=F
 DIIS: error= 1.69D-08 at cycle  12 NSaved=  12.
 NSaved=12 IEnMin=12 EnMin= -189.237925248912     IErMin=12 ErrMin= 1.69D-08
 ErrMax= 1.69D-08  0.00D+00 EMaxC= 1.00D-01 BMatC= 1.01D-13 BMatP= 8.25D-12
 IDIUse=1 WtCom= 1.00D+00 WtEn= 0.00D+00
 Coeff-Com:  0.133D-07 0.358D-07-0.997D-06 0.427D-06 0.402D-05 0.234D-04
 Coeff-Com:  0.212D-04 0.260D-03-0.498D-03-0.681D-03 0.745D-01 0.926D+00
 Coeff:      0.133D-07 0.358D-07-0.997D-06 0.427D-06 0.402D-05 0.234D-04
 Coeff:      0.212D-04 0.260D-03-0.498D-03-0.681D-03 0.745D-01 0.926D+00
 Gap=     0.165 Goal=   None    Shift=    0.000
 Gap=     0.165 Goal=   None    Shift=    0.000
 RMSDP=6.84D-09 MaxDP=1.55D-07 DE=-2.70D-12 OVMax= 1.12D-07

 SCF Done:  E(UB3LYP) =  -189.237925249     A.U. after   12 cycles
            NFock= 12  Conv=0.68D-08     -V/T= 2.0057
 <Sx>= 0.0000 <Sy>= 0.0000 <Sz>= 0.0000 <S**2>=-0.0000 S=-0.0000
 <L.S>= 0.000000000000E+00
 KE= 1.881701518723D+02 PE=-5.770126577141D+02 EE= 1.371968433339D+02
 Annihilation of the first spin contaminant:
 S**2 before annihilation    -0.0000,   after     0.0000
 Leave Link  502 at Mon Aug  3 15:40:31 2020, MaxMem=   524288000 cpu:              23.5 elap:               3.4
 (Enter /home/ubuntu/g16/l601.exe)
 Copying SCF densities to generalized density rwf, IOpCl= 1 IROHF=0.

 **********************************************************************

            Population analysis using the SCF density.

 **********************************************************************

 Orbital symmetries:
 Alpha Orbitals:
       Occupied  (A) (A) (A) (A) (A) (A) (A) (A) (A) (A) (A) (A)
       Virtual   (A) (A) (A) (A) (A) (A) (A) (A) (A) (A) (A) (A)
                 (A) (A) (A) (A) (A) (A) (A) (A) (A) (A) (A) (A)
                 (A) (A) (A) (A) (A) (A) (A) (A) (A) (A) (A) (A)
                 (A) (A) (A) (A) (A) (A) (A) (A) (A) (A) (A) (A)
                 (A) (A) (A) (A) (A) (A) (A) (A) (A) (A) (A) (A)
                 (A) (A) (A) (A) (A) (A)
 Beta  Orbitals:
       Occupied  (A) (A) (A) (A) (A) (A) (A) (A) (A) (A) (A) (A)
       Virtual   (A) (A) (A) (A) (A) (A) (A) (A) (A) (A) (A) (A)
                 (A) (A) (A) (A) (A) (A) (A) (A) (A) (A) (A) (A)
                 (A) (A) (A) (A) (A) (A) (A) (A) (A) (A) (A) (A)
                 (A) (A) (A) (A) (A) (A) (A) (A) (A) (A) (A) (A)
                 (A) (A) (A) (A) (A) (A) (A) (A) (A) (A) (A) (A)
                 (A) (A) (A) (A) (A) (A)
 The electronic state is 1-A.
     Natural Orbital Coefficients:
                           1         2         3         4         5
     Eigenvalues --     2.00000   2.00000   2.00000   2.00000   2.00000
   1 1   C  1S         -0.09521  -0.00279   0.09503  -0.01632   0.26619
   2        2S          0.30799  -0.03375  -0.03586   0.02868  -0.13313
   3        3S         -0.02856  -0.01111  -0.18777   0.00508  -0.08645
   4        4S         -0.04854   0.00454  -0.05210  -0.00718  -0.01887
   5        5PX        -0.01377   0.33125   0.00161  -0.06167  -0.06994
   6        5PY         0.19251   0.00589   0.35263  -0.00282   0.08887
   7        5PZ        -0.00699  -0.00444   0.03048  -0.01297   0.02754
   8        6PX        -0.01404   0.01998   0.00976  -0.00134  -0.00802
   9        6PY        -0.01691  -0.00233  -0.04847   0.00488  -0.01033
  10        6PZ        -0.00294  -0.00187   0.01264  -0.00548   0.01147
  11        7PX        -0.00367   0.01190   0.00293  -0.00259  -0.00448
  12        7PY        -0.00333   0.00423   0.00305  -0.00392  -0.00751
  13        7PZ        -0.00015  -0.00012   0.00068  -0.00037   0.00063
  14        8D 0       -0.00556   0.00272   0.01651  -0.00247   0.00756
  15        8D+1       -0.00646   0.01440   0.00649   0.05505  -0.00509
  16        8D-1        0.00030   0.00018  -0.00129   0.00051  -0.00116
  17        8D+2        0.02263  -0.01249  -0.04008   0.01217  -0.00834
  18        8D-2        0.00235  -0.01108   0.00152  -0.00129   0.01271
  19        9D 0        0.01881   0.00027   0.01016  -0.00002  -0.00466
  20        9D+1       -0.00275   0.00614   0.00276   0.02349  -0.00218
  21        9D-1       -0.00024  -0.00013   0.00093  -0.00037   0.00085
  22        9D+2        0.02936  -0.00355   0.02672   0.00285   0.00447
  23        9D-2        0.00179   0.03860   0.00023  -0.00838  -0.00986
  24 2   O  1S         -0.02200  -0.03296   0.12164  -0.01401   0.26962
  25        2S          0.16134   0.17372  -0.26782  -0.00121  -0.07874
  26        3S          0.17142   0.15292  -0.26132   0.00296  -0.06380
  27        4S          0.03097  -0.02261  -0.02162   0.00967   0.02680
  28        5PX         0.04234  -0.03788   0.08442  -0.00286   0.19285
  29        5PY         0.19525   0.20727  -0.01660  -0.01746   0.03251
  30        5PZ        -0.05582   0.10713   0.07606   0.41333  -0.01571
  31        6PX         0.02262   0.02350   0.00851  -0.00871   0.09585
  32        6PY         0.11873   0.11274   0.00295  -0.01042   0.04023
  33        6PZ        -0.03677   0.07127   0.04928   0.27481  -0.01151
  34        7PX         0.02163   0.02250  -0.00188  -0.00659   0.02310
  35        7PY         0.02400   0.03312  -0.02838  -0.00190   0.02734
  36        7PZ        -0.01477   0.03058   0.01750   0.11746  -0.00785
  37        8D 0       -0.00269  -0.00520   0.00311   0.00065   0.00452
  38        8D+1        0.00123  -0.00196  -0.00213  -0.00767  -0.00030
  39        8D-1       -0.00068   0.00115   0.00110   0.00448   0.00006
  40        8D+2       -0.00201   0.00022  -0.00974   0.00040  -0.00770
  41        8D-2       -0.00947  -0.01059   0.00132   0.00104   0.00437
  42        9D 0       -0.00774   0.00847  -0.00923  -0.00159  -0.00242
  43        9D+1        0.00076  -0.00107  -0.00149  -0.00420  -0.00043
  44        9D-1       -0.00047   0.00071   0.00087   0.00277   0.00019
  45        9D+2        0.00177  -0.01359  -0.00011   0.00320  -0.00069
  46        9D-2       -0.00865   0.00474  -0.01402  -0.00032  -0.00387
  47 3   O  1S         -0.16918   0.17356   0.42661  -0.21420  -0.70356
  48        2S          0.00066  -0.23066  -0.13215   0.06548  -0.15454
  49        3S         -0.01427  -0.20928  -0.11860   0.07030  -0.12651
  50        4S         -0.02564   0.01836   0.01895   0.00211  -0.01456
  51        5PX         0.09047  -0.03699  -0.14970  -0.01420   0.00754
  52        5PY         0.16753  -0.32355  -0.02987   0.12590  -0.00352
  53        5PZ         0.04378  -0.11459  -0.02403  -0.43502   0.06266
  54        6PX         0.05887   0.03135  -0.05164  -0.02015   0.01714
  55        6PY         0.09308  -0.18175  -0.00321   0.07556  -0.00112
  56        6PZ         0.02934  -0.07590  -0.01715  -0.28829   0.04052
  57        7PX         0.00431   0.02794  -0.00891  -0.01205   0.01736
  58        7PY         0.00311  -0.06185  -0.02457   0.02920  -0.00514
  59        7PZ         0.01316  -0.03160  -0.01055  -0.12044   0.01414
  60        8D 0       -0.00385   0.00626   0.00370  -0.00152   0.00148
  61        8D+1        0.00069  -0.00230   0.00020  -0.00864   0.00180
  62        8D-1        0.00043  -0.00131  -0.00001  -0.00494   0.00093
  63        8D+2       -0.00004  -0.00030  -0.01015  -0.00056  -0.00362
  64        8D-2        0.00951  -0.01386  -0.00141   0.00410  -0.00150
  65        9D 0       -0.00790  -0.00845  -0.00845   0.00142   0.00102
  66        9D+1        0.00032  -0.00135   0.00040  -0.00505   0.00129
  67        9D-1        0.00024  -0.00087   0.00016  -0.00325   0.00075
  68        9D+2        0.00338   0.01306  -0.00138  -0.00243  -0.00198
  69        9D-2        0.00767   0.00568   0.01376  -0.00105   0.00100
  70 4   H  1S          0.27368   0.00528   0.27585  -0.00524  -0.01607
  71        2S          0.22350   0.02190   0.36506  -0.02083   0.03587
  72        3S          0.00772   0.00659   0.03498  -0.00533   0.00311
  73        4PX         0.00037   0.00573  -0.00001  -0.00100  -0.00161
  74        4PY        -0.02546   0.00242  -0.00661  -0.00238   0.00607
  75        4PZ        -0.00022  -0.00012   0.00092  -0.00035   0.00083
  76        5PX         0.00186   0.00087   0.00169  -0.00172   0.00685
  77        5PY        -0.05622   0.00272  -0.06708  -0.00230  -0.01415
  78        5PZ        -0.00003  -0.00009   0.00017  -0.00032   0.00021
                           6         7         8         9        10
     Eigenvalues --     2.00000   2.00000   2.00000   2.00000   2.00000
   1 1   C  1S          0.29883   0.29206   0.19377   0.67398  -0.47196
   2        2S          0.05489  -0.20703  -0.04592   0.09297  -0.04238
   3        3S          0.18292  -0.17080  -0.16115   0.05401   0.04605
   4        4S          0.05046  -0.07672  -0.06494   0.02374  -0.00222
   5        5PX        -0.05410  -0.04629   0.12198   0.18069   0.21332
   6        5PY        -0.15678   0.09607   0.09371  -0.05554  -0.00354
   7        5PZ         0.12026  -0.02030   0.12038   0.02824   0.10205
   8        6PX        -0.01085  -0.03402   0.04995   0.03367   0.05120
   9        6PY        -0.00407   0.02342   0.01726  -0.01583   0.01185
  10        6PZ         0.05006  -0.00844   0.05009   0.01175   0.04248
  11        7PX         0.00158  -0.00903   0.01600   0.00543   0.01098
  12        7PY        -0.02752  -0.01589   0.00809   0.00064  -0.01968
  13        7PZ         0.00274  -0.00047   0.00275   0.00065   0.00233
  14        8D 0       -0.00929   0.00019   0.00058  -0.00384  -0.00222
  15        8D+1        0.00200  -0.00121  -0.00124  -0.00163  -0.00412
  16        8D-1       -0.00512   0.00086  -0.00512  -0.00120  -0.00434
  17        8D+2        0.05068   0.02759  -0.00655  -0.00174   0.03734
  18        8D-2        0.03101  -0.01349   0.01678  -0.04714  -0.03518
  19        9D 0       -0.01465  -0.01242   0.00630   0.00345  -0.01186
  20        9D+1        0.00081  -0.00051  -0.00057  -0.00071  -0.00180
  21        9D-1        0.00377  -0.00063   0.00375   0.00088   0.00319
  22        9D+2        0.00330   0.01196   0.00164  -0.00422   0.01123
  23        9D-2       -0.00160   0.00109   0.00720   0.01321   0.01367
  24 2   O  1S         -0.10764  -0.27503  -0.16380  -0.00856   0.23592
  25        2S         -0.12427   0.24605  -0.01523   0.02766  -0.01457
  26        3S         -0.17728   0.34596  -0.00157  -0.02989  -0.08143
  27        4S         -0.06889   0.15358  -0.00729  -0.06326  -0.06387
  28        5PX         0.05172   0.29248   0.05762  -0.34172  -0.20139
  29        5PY         0.40354  -0.00155   0.11924  -0.14416   0.17743
  30        5PZ         0.11802  -0.02657   0.09311   0.01149   0.05522
  31        6PX         0.06298   0.14984   0.03042  -0.17169  -0.08956
  32        6PY         0.25766   0.01207   0.07422  -0.12662   0.08149
  33        6PZ         0.07364  -0.01685   0.05710   0.00653   0.03267
  34        7PX         0.03991   0.01108   0.01610  -0.05914  -0.03360
  35        7PY         0.12582   0.02731   0.01371  -0.06875   0.02241
  36        7PZ         0.01805  -0.00492   0.01105  -0.00030   0.00273
  37        8D 0       -0.00138   0.00627  -0.00093  -0.00481  -0.00402
  38        8D+1       -0.00488   0.00095  -0.00441  -0.00083  -0.00328
  39        8D-1        0.00233  -0.00047   0.00205   0.00037   0.00148
  40        8D+2       -0.00256  -0.00860  -0.00401   0.01005   0.00243
  41        8D-2       -0.00481   0.00456  -0.00384  -0.00353  -0.00785
  42        9D 0        0.00310   0.00179  -0.00052   0.00681   0.00593
  43        9D+1       -0.00392   0.00073  -0.00365  -0.00075  -0.00284
  44        9D-1        0.00215  -0.00041   0.00197   0.00039   0.00151
  45        9D+2       -0.00237   0.00028  -0.00315  -0.00323  -0.00349
  46        9D-2        0.00451   0.00080  -0.00055   0.00797   0.00657
  47 3   O  1S          0.20675   0.22932  -0.31669  -0.01885  -0.09469
  48        2S          0.00142   0.00652   0.31543  -0.07514  -0.00284
  49        3S         -0.07579   0.02311   0.43515  -0.07153   0.03819
  50        4S         -0.06108   0.03795   0.17225  -0.00397   0.05824
  51        5PX         0.21036  -0.22520  -0.19774  -0.17588  -0.30641
  52        5PY         0.12128   0.22245  -0.27920   0.11673   0.24497
  53        5PZ         0.08706  -0.00800   0.11217   0.03663   0.11878
  54        6PX         0.08493  -0.12531  -0.08025  -0.10181  -0.16519
  55        6PY         0.05076   0.14800  -0.16207   0.09692   0.18326
  56        6PZ         0.05310  -0.00451   0.06974   0.02321   0.07485
  57        7PX         0.03058  -0.02630   0.00474  -0.05113  -0.05307
  58        7PY         0.03186   0.06827  -0.05503   0.05400   0.10264
  59        7PZ         0.00943   0.00029   0.01644   0.00675   0.02059
  60        8D 0       -0.00299   0.00348   0.00521   0.00187   0.00442
  61        8D+1        0.00428  -0.00059   0.00476   0.00132   0.00449
  62        8D-1        0.00199  -0.00026   0.00227   0.00065   0.00218
  63        8D+2        0.00600  -0.01028  -0.00201  -0.00372  -0.00899
  64        8D-2        0.00393   0.00042  -0.00718  -0.00218  -0.00196
  65        9D 0        0.00732   0.00144  -0.00281  -0.00351  -0.00439
  66        9D+1        0.00358  -0.00053   0.00385   0.00102   0.00352
  67        9D-1        0.00194  -0.00028   0.00212   0.00057   0.00196
  68        9D+2       -0.00114  -0.00274   0.00480   0.00072   0.00375
  69        9D-2       -0.00992  -0.00162   0.00314   0.00314   0.00470
  70 4   H  1S         -0.19941  -0.09674   0.07054   0.00044  -0.09728
  71        2S         -0.26467  -0.04736   0.11331   0.00087  -0.13951
  72        3S         -0.05402  -0.00211   0.02844  -0.00262  -0.03116
  73        4PX        -0.00165   0.00003   0.00091   0.00384   0.00376
  74        4PY         0.00316   0.00710  -0.00178   0.00045  -0.00027
  75        4PZ         0.00362  -0.00061   0.00362   0.00085   0.00307
  76        5PX         0.01269  -0.00781   0.01022  -0.02007  -0.01381
  77        5PY         0.01572  -0.01257  -0.01327   0.00054   0.00054
  78        5PZ         0.00083  -0.00014   0.00083   0.00020   0.00072
                          11        12        13        14        15
     Eigenvalues --     2.00000   2.00000   0.00000   0.00000   0.00000
   1 1   C  1S         -0.12731   0.19024   0.09217  -0.12136  -0.06990
   2        2S          0.01166  -0.00677   1.17264  -0.49299  -0.03356
   3        3S         -0.01433   0.00733 -11.28927  20.52858   3.65385
   4        4S          0.00441   0.00041   0.76038  15.30150   6.31948
   5        5PX        -0.09855  -0.05531  -0.29202  -0.17801   0.14649
   6        5PY         0.00148  -0.02880   0.11724  -0.43006  -0.25099
   7        5PZ         0.32313   0.03060   0.00570   0.00696  -0.01105
   8        6PX        -0.03627   0.00132  -4.74589  -4.14271   6.00168
   9        6PY        -0.00060   0.00008  -9.98685   2.86761  -2.40411
  10        6PZ         0.13446   0.01273  -0.00645   0.04122  -0.00698
  11        7PX        -0.01087  -0.00112  -0.70641  -0.63734   0.52356
  12        7PY         0.01239   0.00188  -0.91400   2.44521   0.52565
  13        7PZ         0.00737   0.00069   0.00256   0.01815   0.01137
  14        8D 0        0.00222  -0.00330   0.09403  -0.57814  -0.11385
  15        8D+1        0.00287   0.00300   0.00469   0.00299  -0.00771
  16        8D-1       -0.01374  -0.00130   0.00275  -0.00403   0.00925
  17        8D+2       -0.02135   0.00327  -0.04807   0.30523   0.11850
  18        8D-2       -0.00600   0.01280   0.29832   0.24040  -0.39311
  19        9D 0        0.00591  -0.00299   0.25239  -1.44115  -0.51125
  20        9D+1        0.00111   0.00127  -0.00006  -0.00094   0.00988
  21        9D-1        0.01009   0.00096   0.00137   0.01576  -0.06128
  22        9D+2       -0.00650   0.00041   0.98841   0.74393   0.59998
  23        9D-2       -0.00561  -0.00874   1.86109   1.61023  -3.69983
  24 2   O  1S         -0.10916   0.87932  -0.02348   0.03733   0.07839
  25        2S          0.10210   0.05573  -0.20139   0.35150   1.14439
  26        3S          0.15039   0.02386   1.84010  -1.33478  -5.96505
  27        4S          0.06305   0.01213   0.83435  -2.54909  -9.64151
  28        5PX         0.03985   0.07495  -0.09316   0.06684  -0.16574
  29        5PY        -0.23356   0.00634  -0.08389   0.03127  -0.25215
  30        5PZ         0.29771   0.04923  -0.00118   0.00334  -0.00462
  31        6PX         0.00474   0.04909  -0.25735   1.20523   2.58588
  32        6PY        -0.13813   0.00710   0.72556  -1.24530  -0.37343
  33        6PZ         0.18497   0.03148  -0.00269  -0.00701   0.00066
  34        7PX        -0.00712   0.01549  -0.03903   0.02097   2.57497
  35        7PY        -0.05103   0.01043  -0.34276  -0.92354  -0.72190
  36        7PZ         0.04306   0.00997  -0.00026  -0.01835  -0.01215
  37        8D 0        0.00205   0.00118  -0.06495  -0.02661   0.03398
  38        8D+1       -0.01274  -0.00161  -0.00131  -0.00191  -0.00309
  39        8D-1        0.00605   0.00081  -0.00011   0.00075  -0.00288
  40        8D+2        0.00192  -0.00113   0.14174   0.05479   0.01803
  41        8D-2        0.00534   0.00151   0.01584   0.03462  -0.06178
  42        9D 0       -0.00239   0.00038   0.22215   0.56180  -0.09033
  43        9D+1       -0.01032  -0.00121  -0.00289   0.00665   0.01882
  44        9D-1        0.00563   0.00068   0.00054  -0.00656   0.01324
  45        9D+2        0.00351  -0.00003  -0.11223  -0.12193  -0.22412
  46        9D-2       -0.00282   0.00144  -0.46164   0.61088  -0.19041
  47 3   O  1S          0.07525   0.22790   0.06360   0.10851  -0.04116
  48        2S         -0.09532   0.10843   0.59945   1.14451  -0.29314
  49        3S         -0.12602   0.09897  -3.64410  -6.16227   2.62541
  50        4S         -0.05922   0.01413  -8.40763 -10.35349   1.99360
  51        5PX         0.10403   0.03970   0.06137   0.03294  -0.04448
  52        5PY        -0.00332  -0.04258   0.01827   0.05083  -0.08497
  53        5PZ         0.25331   0.00297  -0.00082   0.00327   0.00541
  54        6PX         0.05473   0.01147  -1.89290  -3.11854   0.42919
  55        6PY        -0.00906  -0.03742  -0.06751  -1.81448  -0.35907
  56        6PZ         0.15550   0.00077   0.00013  -0.00561  -0.00322
  57        7PX         0.00480   0.01048  -2.45305  -2.16237   1.07743
  58        7PY        -0.01961  -0.01531  -1.12558  -1.50215  -0.14204
  59        7PZ         0.03075  -0.00298   0.00249  -0.01605  -0.01907
  60        8D 0       -0.00263  -0.00077   0.04545   0.07453  -0.16865
  61        8D+1        0.01186   0.00072   0.00210   0.00310   0.00279
  62        8D-1        0.00555   0.00029  -0.00239  -0.00290   0.00626
  63        8D+2        0.00208   0.00204  -0.02215  -0.02351   0.12909
  64        8D-2        0.00242   0.00068  -0.10707  -0.05706   0.08121
  65        9D 0        0.00022   0.00385   0.01010   0.35468   0.45231
  66        9D+1        0.00981   0.00070  -0.00100  -0.00832  -0.00505
  67        9D-1        0.00534   0.00036  -0.00422  -0.01290   0.02573
  68        9D+2       -0.00215  -0.00194  -0.12891  -0.16656   0.01345
  69        9D-2       -0.00014  -0.00391   0.27139  -0.77022   0.18234
  70 4   H  1S          0.05638  -0.02783   1.00432  -0.79689  -0.00866
  71        2S          0.06615  -0.02070  18.08177 -12.51974   1.29244
  72        3S          0.01595  -0.00020   0.19991  -5.22329  -1.99844
  73        4PX        -0.00093  -0.00141   0.08139   0.04704   0.02259
  74        4PY        -0.00076   0.00238  -0.05381   0.34450  -0.05789
  75        4PZ         0.00973   0.00092  -0.00137   0.00356  -0.01133
  76        5PX        -0.00424   0.00612  -0.40190  -0.51918   1.65460
  77        5PY         0.00379   0.00553  -6.38855   3.88319  -0.67280
  78        5PZ         0.00221   0.00020   0.00102  -0.02770   0.04162
                          16        17        18        19        20
     Eigenvalues --     0.00000   0.00000   0.00000   0.00000   0.00000
   1 1   C  1S          0.07129   0.04964   0.07291   0.09675   0.06772
   2        2S          1.05886   0.69998   0.84406   0.48588   1.31383
   3        3S         -2.06275   1.53050   2.44813  -0.14562   1.51018
   4        4S          0.62694  -0.80698   0.34054   0.21319  -0.50705
   5        5PX        -0.63483  -0.13816  -0.06262  -0.32927  -0.04615
   6        5PY        -0.18943  -0.03714  -0.17433  -0.38109  -0.25717
   7        5PZ        -0.06423  -0.03097  -0.08164   0.00809   0.14169
   8        6PX        -0.03071   0.76091   0.90044   0.65354   1.22967
   9        6PY         1.60918   0.06982  -0.94969  -0.00740   0.26659
  10        6PZ        -0.93393   0.77831  -0.71821   0.55595  -0.00910
  11        7PX        -0.67047  -0.59118   0.47511   0.38183   1.53131
  12        7PY         0.23591   0.86863   0.32261  -0.88704  -1.25724
  13        7PZ         0.86833   0.87815   0.06077   0.03180  -0.27262
  14        8D 0        0.02933  -0.32852  -0.22838   0.55315  -0.20169
  15        8D+1        0.04744   0.00360   0.03355  -0.26617   0.13809
  16        8D-1        0.19120   0.02971  -0.02962  -0.11508   0.12499
  17        8D+2        0.63848   0.08267   0.12889  -0.23439   0.34627
  18        8D-2        0.00240  -0.26194   0.18531   0.18252  -0.25334
  19        9D 0       -0.09569   0.28654   0.24833  -0.11801  -0.33745
  20        9D+1        0.02639  -0.09074   0.08995   0.14943   0.26827
  21        9D-1       -0.06724   0.46260  -0.01315   0.15940  -0.44086
  22        9D+2        0.34287   0.44367  -0.26893   0.59502  -0.32508
  23        9D-2       -1.14262  -0.45171   1.72201   0.78324   0.76797
  24 2   O  1S          0.00486   0.02229   0.01561  -0.01775   0.03580
  25        2S         -0.01436   0.08682  -0.00942   0.43581   0.19209
  26        3S         -0.49700  -1.06548   0.12574  -0.16282  -1.02657
  27        4S          1.70067  -0.42467  -2.71353  -0.48561  -1.25514
  28        5PX         0.17561   0.07745  -0.07563  -0.04293  -0.08254
  29        5PY        -0.06664   0.03373   0.07272   0.18366   0.09985
  30        5PZ        -0.10236   0.09047  -0.12912   0.13827   0.11910
  31        6PX        -0.89127   0.54558   0.91969  -0.42593   1.27289
  32        6PY        -0.06793  -0.47172  -0.89699  -0.40943  -1.04298
  33        6PZ         0.57491  -0.00242   0.37646  -0.10323  -0.52254
  34        7PX        -0.30476   0.59874   0.74086   0.09202  -1.15260
  35        7PY         0.24348  -0.37564  -1.42428   0.18333   0.42420
  36        7PZ        -0.52200  -0.63349   0.05962  -0.32103   0.01975
  37        8D 0        0.03829   0.10666   0.00123  -0.13645   0.00164
  38        8D+1        0.06131   0.05972  -0.01792  -0.03746   0.02658
  39        8D-1       -0.02301   0.05245   0.01859  -0.06211   0.09749
  40        8D+2       -0.07519   0.00161  -0.14214  -0.04642  -0.01375
  41        8D-2       -0.01817  -0.00823  -0.11091  -0.13996   0.16601
  42        9D 0       -0.32212   0.15922   0.47252  -0.03110   0.25341
  43        9D+1       -0.27949   0.08691  -0.24124   0.18439   0.32633
  44        9D-1        0.06098  -0.15352   0.03995  -0.20083   0.07955
  45        9D+2        0.49239  -0.22134   0.06730  -0.16356   0.07080
  46        9D-2        0.10446   0.14968   0.71934   0.14368   0.39615
  47 3   O  1S          0.02341   0.02763   0.03684  -0.00300   0.02683
  48        2S          0.07581   0.02533   0.32377   0.84147   0.25232
  49        3S          0.17995  -0.12036  -1.58783  -1.29808  -0.77423
  50        4S          0.50713  -0.43415  -0.47398   0.10676  -0.47815
  51        5PX         0.14195   0.25678   0.02066   0.00474  -0.09355
  52        5PY         0.14607  -0.00517  -0.01323  -0.05792   0.13307
  53        5PZ        -0.12768  -0.21170   0.07967  -0.00831   0.07085
  54        6PX        -0.35553  -0.57910  -1.30421  -0.23174  -0.69426
  55        6PY        -1.25706  -0.62527   0.21264   0.19623  -0.56210
  56        6PZ         0.67714   0.17792   0.32024  -0.14980  -0.06361
  57        7PX         0.59720  -0.05776  -0.26119   0.02979  -0.64374
  58        7PY         0.33533  -1.46683  -0.15761   0.00602   0.72139
  59        7PZ        -0.53400  -0.52245  -0.02631   0.09932   0.04789
  60        8D 0       -0.12075   0.10191  -0.05281  -0.08495  -0.15303
  61        8D+1       -0.07468   0.05976  -0.11424  -0.02570   0.06497
  62        8D-1       -0.07178   0.04567  -0.01405   0.07039   0.05553
  63        8D+2        0.00738  -0.32126  -0.01114   0.02467  -0.03332
  64        8D-2       -0.08325   0.17104   0.03433   0.08951  -0.13249
  65        9D 0        0.42532   0.33251   0.12006   0.17551   0.34564
  66        9D+1        0.28115  -0.08516   0.24985  -0.03450  -0.16168
  67        9D-1        0.06061  -0.04215  -0.01444  -0.00793   0.31586
  68        9D+2       -0.12738   0.20773  -0.66547  -0.47141  -0.04842
  69        9D-2       -0.65477  -0.64682  -0.01444  -0.26447  -0.33061
  70 4   H  1S          0.49410  -0.47705  -0.57000   0.24517  -0.56060
  71        2S         -1.51135   1.51497   2.09079   0.47496   0.15377
  72        3S         -0.60731   0.25142  -0.02068   0.02579   1.02085
  73        4PX         0.07716   0.25714  -0.35535  -0.09069   0.10389
  74        4PY        -0.28310   0.21417   0.25583  -0.33387   0.23035
  75        4PZ        -0.00517   0.12880  -0.09046   0.07762   0.00500
  76        5PX         0.89915  -0.52487  -0.75282  -1.02663  -1.11103
  77        5PY         0.01170  -0.67032  -0.89930   0.49758  -0.42999
  78        5PZ         0.22843  -0.67188   0.07012  -0.36767   0.62881
                          21        22        23        24        25
     Eigenvalues --     0.00000   0.00000   0.00000   0.00000   0.00000
   1 1   C  1S          0.01129   0.06131   0.15267   0.02660   0.00326
   2        2S          0.34416   0.17534   1.19645   0.47726  -0.18583
   3        3S          0.43005   2.34684  -1.85927   1.31588  -0.73415
   4        4S         -0.81263  -0.87791   0.27026  -0.37652   0.96862
   5        5PX        -0.08180  -0.20569   0.31181   0.63013   0.06616
   6        5PY        -0.24227  -0.24754  -0.07128  -0.21616  -0.20477
   7        5PZ        -0.06434   0.01998   0.04886  -0.05714   0.01965
   8        6PX         0.96281   0.31169  -0.08900  -1.68085   0.69664
   9        6PY        -0.20200   2.97599  -0.51958   1.35333   0.14768
  10        6PZ         1.50396  -0.57551  -0.32374   0.23403  -0.15596
  11        7PX         0.78691   0.24841  -0.18850  -0.58648   0.06571
  12        7PY        -0.70703   0.28136   0.60456  -1.11224   0.53645
  13        7PZ         0.49871  -0.52548  -0.45951   0.32297  -0.07878
  14        8D 0       -0.02139  -0.03464  -0.13590   0.13366   0.13419
  15        8D+1        0.10282  -0.08749  -0.14160  -0.11679  -0.07177
  16        8D-1       -0.33330  -0.05211   0.01985   0.13635   0.04518
  17        8D+2        0.28988  -0.29149  -0.25423   0.06698   0.28961
  18        8D-2       -0.08920   0.06761  -0.09215  -0.11686  -0.21726
  19        9D 0       -0.27011   0.06591   0.27721  -0.12322   0.04965
  20        9D+1        0.08596   0.18494   0.08244  -0.40025   0.08563
  21        9D-1       -0.05394  -0.29050  -0.12375   0.14045   0.02822
  22        9D+2        0.04615  -0.50848   0.12674  -0.27194  -0.02781
  23        9D-2       -0.24795  -0.17382  -2.05676   0.70279   0.69226
  24 2   O  1S          0.01626   0.00047  -0.00422  -0.00682  -0.00252
  25        2S          0.29314   0.09901   0.51346   0.33031   0.01715
  26        3S         -1.27262   0.18699  -1.18382   0.46393   0.00935
  27        4S          0.04190   1.34631  -0.82235   0.48088  -0.16711
  28        5PX        -0.00158  -0.29082   0.07317  -0.43578  -0.02460
  29        5PY         0.20879   0.01070  -0.18971   0.23172   0.07177
  30        5PZ        -0.05946   0.04022  -0.05072  -0.25593   0.11329
  31        6PX         0.57039   0.02990   0.54192   0.88160   0.03282
  32        6PY        -0.55910   0.01707   0.38108  -0.52225  -0.21723
  33        6PZ        -0.32041  -0.10757   0.03072   0.43567  -0.09845
  34        7PX        -1.02865  -0.22202   0.27961   0.23875   0.15177
  35        7PY         0.57648   0.06955  -0.43955   0.42065  -0.13416
  36        7PZ        -0.39627   0.28814   0.28885   0.06438  -0.00223
  37        8D 0        0.01722   0.09643  -0.01700  -0.09695   0.13177
  38        8D+1       -0.17285   0.00185  -0.08717  -0.11398   0.05061
  39        8D-1        0.06787  -0.08005  -0.02141   0.06152  -0.07073
  40        8D+2        0.03814   0.17681  -0.08448  -0.02284   0.00837
  41        8D-2        0.16000  -0.30624   0.08022  -0.04635   0.35392
  42        9D 0       -0.03803   0.07264   0.13987   0.46112   0.18713
  43        9D+1        0.29308  -0.00074   0.00732  -0.17834  -0.07379
  44        9D-1       -0.18705  -0.01072   0.04872   0.19425  -0.02954
  45        9D+2        0.09872   0.16026  -0.37113  -0.57358   0.18514
  46        9D-2       -0.01501   0.13829   0.56497   0.40348   0.29683
  47 3   O  1S          0.01626  -0.00284  -0.03390   0.01382   0.02940
  48        2S         -0.03292  -0.08903   0.13726  -0.36926  -0.12956
  49        3S          0.02936   0.74450   1.10687  -0.07074  -0.06205
  50        4S         -0.66345   1.15352  -0.21082  -0.29776   0.77321
  51        5PX         0.03462   0.14384   0.13717  -0.04477  -0.07870
  52        5PY        -0.17787   0.38284   0.10317   0.00533  -0.03514
  53        5PZ         0.21160  -0.06069   0.02649   0.03580  -0.23990
  54        6PX        -0.24653  -0.00154   0.23639   0.42766   0.26462
  55        6PY        -0.21870  -0.27408  -0.72963  -0.10113   0.11616
  56        6PZ        -0.39673   0.06798  -0.07783  -0.31345   0.21476
  57        7PX        -0.74627  -0.24070  -0.57211   0.29370   0.08512
  58        7PY         0.10754  -0.24799  -0.41735   0.56229  -0.05916
  59        7PZ        -0.45104   0.48705   0.31621  -0.26521   0.26431
  60        8D 0        0.03290   0.03044  -0.11181   0.10930  -0.19148
  61        8D+1        0.07535   0.00828  -0.01282  -0.00541   0.07301
  62        8D-1       -0.02648  -0.02619   0.03027   0.11039  -0.01597
  63        8D+2       -0.15366  -0.03796  -0.05798  -0.16903   0.16816
  64        8D-2       -0.10990   0.18169   0.17426   0.06967   0.14385
  65        9D 0        0.31162   0.26492   0.13757  -0.39642  -0.07058
  66        9D+1       -0.29396   0.16612   0.10423  -0.10567   0.10629
  67        9D-1       -0.31417   0.13169   0.08100  -0.10050   0.08477
  68        9D+2        0.16191   0.03122  -0.03513   0.41855   0.23045
  69        9D-2       -0.20462  -0.30476  -0.55460   0.17265   0.16508
  70 4   H  1S         -0.00160  -0.34860  -0.08207  -0.06915   0.36452
  71        2S          0.51993  -3.99489   2.58798  -2.18357  -0.06620
  72        3S          0.97701   0.17474  -0.53504   0.61651  -0.72002
  73        4PX         0.17431   0.17693   0.09376  -0.04294  -0.22894
  74        4PY        -0.07318   0.06600   0.11458  -0.32361  -0.35352
  75        4PZ        -0.05903  -0.06847  -0.09884  -0.12584  -0.08661
  76        5PX        -0.79595  -0.01596   1.61964   0.24177  -0.77845
  77        5PY        -0.33989   1.55637  -1.12456   0.91464  -0.10433
  78        5PZ        -0.86397   0.45509   0.23479  -0.27259  -0.05340
                          26        27        28        29        30
     Eigenvalues --     0.00000   0.00000   0.00000   0.00000   0.00000
   1 1   C  1S          0.00801  -0.04104  -0.01423  -0.02901   0.02327
   2        2S          0.03362  -0.29562  -0.24607  -0.47127  -0.12530
   3        3S          1.66556  -1.29000   1.14561  -0.66655   0.94462
   4        4S         -2.07462   1.11945  -1.58668   1.55761  -1.35838
   5        5PX        -0.54581  -0.25799   0.03628  -0.16036  -0.01052
   6        5PY         0.19117   0.49393  -0.41992   0.20366  -0.26544
   7        5PZ        -0.03677  -0.03903   0.03321  -0.01602   0.23148
   8        6PX        -0.58139  -0.65796  -0.42522  -1.06479   0.33051
   9        6PY         0.08890   0.75961   0.15251   0.19277  -0.19950
  10        6PZ         0.76364  -0.43175  -0.06846   0.29076   0.15694
  11        7PX         0.09361  -0.20452   0.39117   0.59311   0.73584
  12        7PY        -0.79971  -0.33198  -0.71440   0.29147  -0.41642
  13        7PZ        -0.15936  -0.36682  -0.33868   0.16558  -0.05142
  14        8D 0       -0.10001  -0.08773   0.03364   0.16365  -0.25903
  15        8D+1        0.14116   0.12308  -0.24516   0.15155   0.20519
  16        8D-1       -0.22592  -0.07823   0.01317  -0.01881   0.06372
  17        8D+2       -0.43433  -0.71841   0.54164   0.26044   0.11262
  18        8D-2        0.25914  -0.04050   0.05097  -0.30439   0.06655
  19        9D 0        0.01699  -0.05940  -0.25927   0.04332   0.56351
  20        9D+1       -0.00388   0.30724  -1.03567   0.61882   0.75411
  21        9D-1        1.14078  -0.46034  -0.00338   0.38970  -0.08023
  22        9D+2        0.29750  -0.16811  -0.16312  -0.41910  -0.11618
  23        9D-2       -0.92744  -0.75349  -0.43808  -0.67697  -0.00438
  24 2   O  1S         -0.02093  -0.03760  -0.00333  -0.04618   0.01774
  25        2S          0.28761  -0.17282   0.20666  -0.10551   0.28357
  26        3S         -0.49431   0.83367  -0.60075   0.70645  -0.87384
  27        4S          1.05146   1.58796   0.11633   0.32180   1.52110
  28        5PX        -0.16865  -0.03927  -0.08790   0.20682   0.05860
  29        5PY         0.15144  -0.04890  -0.11397   0.02219   0.07556
  30        5PZ         0.11803  -0.03701   0.19698  -0.04877  -0.12583
  31        6PX        -0.31856  -0.81131   0.47537  -0.55453   0.16110
  32        6PY         0.35392   0.85901  -0.11463   0.63813  -0.17998
  33        6PZ        -0.04371  -0.23762   0.39291  -0.35586  -0.42763
  34        7PX        -0.30546  -1.02087  -0.58505  -0.36493  -1.00485
  35        7PY         0.18593   0.77265   0.33895  -0.10497   0.03326
  36        7PZ         0.06594   0.20989   0.41098  -0.16409  -0.54926
  37        8D 0        0.17884   0.23593   0.05499  -0.09572   0.13118
  38        8D+1       -0.05523   0.09241   0.21622   0.12908  -0.03637
  39        8D-1        0.13464  -0.02975  -0.22535  -0.06056  -0.11593
  40        8D+2        0.03008  -0.23560  -0.12129   0.14810  -0.31464
  41        8D-2       -0.06858  -0.06726   0.07411  -0.17002  -0.13022
  42        9D 0       -0.23352  -0.24236  -0.01518  -0.21383  -0.16988
  43        9D+1       -0.01197   0.20264  -0.45799   0.12996   0.14422
  44        9D-1       -0.27461  -0.01080   0.28913  -0.28931  -0.06516
  45        9D+2        0.18633   0.16770   0.12708   0.09062  -0.03152
  46        9D-2       -0.08630  -0.49771   0.09581  -0.28400   0.16349
  47 3   O  1S          0.02632  -0.01960   0.00264  -0.00487  -0.00552
  48        2S          0.21926  -0.35762  -0.09690  -0.03908  -0.08943
  49        3S         -0.58612   1.51533  -0.13491   0.38288   0.29254
  50        4S          0.32740  -2.15043  -0.44556  -0.29869  -0.67037
  51        5PX         0.15587  -0.02820  -0.17132  -0.01052   0.06654
  52        5PY         0.06428   0.16247   0.08694   0.01355   0.05179
  53        5PZ         0.24014   0.09266  -0.15966  -0.29736  -0.28816
  54        6PX        -0.66113   0.32641  -0.10232   0.35301  -0.38807
  55        6PY        -0.60393  -0.12553  -0.53132  -0.30315  -0.15149
  56        6PZ        -0.04527   0.09327  -0.47177   0.57885   0.36678
  57        7PX        -0.20323  -0.50589  -0.30413  -0.80907  -1.07265
  58        7PY         0.70286  -0.42258   0.16722   0.15711   0.44693
  59        7PZ         0.06322   0.18429  -0.02430   0.28926   0.56382
  60        8D 0       -0.08295  -0.07152  -0.10061  -0.17267   0.06732
  61        8D+1       -0.24551   0.01955   0.07283   0.01176  -0.16697
  62        8D-1       -0.01018  -0.04190  -0.10545   0.01505  -0.08246
  63        8D+2        0.08234  -0.17177  -0.09240  -0.20908   0.07583
  64        8D-2        0.09755   0.36526  -0.07530   0.02061   0.05005
  65        9D 0        0.14210   0.16270   0.08044  -0.05209   0.11636
  66        9D+1       -0.01210   0.10142  -0.34834   0.25127   0.17247
  67        9D-1       -0.32795   0.15300  -0.61368   0.12585   0.24821
  68        9D+2       -0.33426  -0.18756   0.03706   0.07446  -0.12146
  69        9D-2        0.06515   0.08708  -0.14938   0.02984  -0.02159
  70 4   H  1S         -0.32345  -0.52034   0.29913   0.32764  -0.01257
  71        2S         -0.69449  -1.18374  -0.09388  -0.60197   0.26260
  72        3S          0.79810   0.12598   1.19750  -1.27067   0.25609
  73        4PX        -0.16589   0.06139   0.07279   0.07304   0.08997
  74        4PY         0.26684   0.17390  -0.46469   0.25188  -0.45476
  75        4PZ         0.27300   0.07891   0.19291  -0.03334  -0.13883
  76        5PX         0.91124   0.03528   0.40885   0.68050  -0.25231
  77        5PY         0.93990   0.06305  -0.19531  -0.00686   0.45475
  78        5PZ        -1.06727   0.65936   0.03022  -0.52227  -0.01291
                          31        32        33        34        35
     Eigenvalues --     0.00000   0.00000   0.00000   0.00000   0.00000
   1 1   C  1S         -0.03414  -0.00402  -0.02582   0.03105   0.00586
   2        2S          0.22556   0.18430  -0.24490  -0.06741   0.14650
   3        3S          1.00112  -0.62557  -0.24931  -1.14584   0.42021
   4        4S         -1.25988   0.82397   0.16605   1.30014  -0.67039
   5        5PX        -0.11910  -0.08887   0.04433   0.04844  -0.20285
   6        5PY         0.32796   0.51237  -0.16202  -0.35428   0.02805
   7        5PZ         0.16820   0.22895   0.23239  -0.02707   0.09185
   8        6PX        -0.54274   0.47457  -0.60309   0.43410  -0.55609
   9        6PY         0.12082  -0.32156   0.33516  -0.05479  -1.02277
  10        6PZ         0.32449  -0.11115  -0.09699   0.09743  -0.01700
  11        7PX        -0.44110  -0.38907   0.58961   0.09143   0.09629
  12        7PY        -0.81895   0.86419   0.11002   0.89019   0.96568
  13        7PZ        -0.00707  -0.01257  -0.14899  -0.34145   0.30573
  14        8D 0       -0.16068   0.02467   0.11366   0.44437   0.04112
  15        8D+1        0.15920   0.02935  -0.07986  -0.05773   0.17451
  16        8D-1       -0.09746   0.23883   0.26551  -0.09073  -0.18141
  17        8D+2       -0.33120  -0.51825   0.19952   0.51415  -0.19911
  18        8D-2        0.18297   0.03892   0.13218   0.10009   0.17542
  19        9D 0       -0.22974  -0.43285   0.12271   0.00837   0.02295
  20        9D+1        0.67168  -0.42474   0.33853  -0.43295   0.65492
  21        9D-1       -0.18790   0.27045   0.50086   0.06235  -0.71135
  22        9D+2        1.47933  -0.26271   0.57069  -0.62663  -0.85304
  23        9D-2       -0.15829   0.35547  -0.46645  -0.11271  -0.14440
  24 2   O  1S          0.00369  -0.00751  -0.01863  -0.00852  -0.02415
  25        2S         -0.28478   0.61769  -0.26238  -0.04834   0.46765
  26        3S          0.26300  -0.87767   0.67073   0.27577  -0.20386
  27        4S         -1.71548   0.95543  -0.80990   0.28179   0.01957
  28        5PX        -0.13514  -0.14613   0.01945   0.05558  -0.43826
  29        5PY        -0.01087   0.09755  -0.13110  -0.16567  -0.07032
  30        5PZ        -0.25573  -0.05970   0.25802  -0.40303   0.11297
  31        6PX        -0.01801  -0.12619  -0.19265  -0.14614   0.80050
  32        6PY        -0.43234   0.15349   0.16067   0.39843   0.74992
  33        6PZ        -0.24256   0.31970  -0.29376   0.73919  -0.66546
  34        7PX         0.62755  -0.02388  -0.32802  -0.15436   0.06657
  35        7PY        -0.02025  -0.05977  -0.29921  -0.11681  -0.38715
  36        7PZ        -0.70889   0.10891   0.12109  -0.23396  -0.46299
  37        8D 0       -0.02406   0.06166   0.17208  -0.02313   0.01574
  38        8D+1        0.14576   0.13175  -0.46607   0.10596  -0.02853
  39        8D-1       -0.18308  -0.15318  -0.01957   0.05824   0.04284
  40        8D+2        0.16837  -0.09744  -0.08108   0.05633  -0.23668
  41        8D-2        0.02580   0.12447  -0.03357   0.02158   0.22721
  42        9D 0        0.00414   0.05071  -0.23653  -0.00312  -0.23211
  43        9D+1        0.16492  -0.33035  -0.05110  -0.25138   0.38355
  44        9D-1       -0.02627   0.40244  -0.11271   0.20692  -0.30247
  45        9D+2        0.11624  -0.02362   0.41506   0.17617  -0.01124
  46        9D-2        0.07499  -0.36575  -0.02476   0.03168  -0.33427
  47 3   O  1S          0.03255  -0.02501   0.01074  -0.01759   0.02482
  48        2S          0.19599   0.30977  -0.00646  -0.27868   0.48494
  49        3S         -1.36361  -0.10473  -0.26033   1.05227  -1.19350
  50        4S          1.00109  -0.59404   0.53461  -0.53691   0.99450
  51        5PX        -0.08655   0.07127  -0.15479  -0.01740   0.01758
  52        5PY         0.09653  -0.10543   0.16374   0.01314  -0.10990
  53        5PZ        -0.28127   0.00019   0.05938   0.15205  -0.05897
  54        6PX         0.02314  -0.11893   0.35825   0.08013  -0.57853
  55        6PY        -0.70918   0.65321  -0.54522   0.28253   0.47760
  56        6PZ         0.26903  -0.20347   0.17776  -0.54589   0.24816
  57        7PX         1.33090   0.13152   0.01128  -0.42828   0.01682
  58        7PY         0.12933  -0.48448  -0.05171  -0.45523  -0.15804
  59        7PZ         0.42286   0.06488   0.30560   0.15047  -0.07904
  60        8D 0        0.02200  -0.22026   0.09138   0.06479  -0.17512
  61        8D+1       -0.17031   0.22177   0.03811  -0.39025  -0.07987
  62        8D-1       -0.09028  -0.07815  -0.22220   0.22456   0.00824
  63        8D+2        0.00362   0.00406  -0.07348  -0.02306  -0.11289
  64        8D-2       -0.17567   0.06504   0.00992   0.14668  -0.04278
  65        9D 0       -0.17275   0.04067  -0.05864   0.02399   0.21399
  66        9D+1        0.21371   0.00361   0.04341   0.15832  -0.22622
  67        9D-1        0.12204  -0.09573   0.24645  -0.05627   0.36288
  68        9D+2        0.01312  -0.05537  -0.15384  -0.18559  -0.11975
  69        9D-2       -0.08537   0.28762  -0.17540  -0.12385   0.04813
  70 4   H  1S         -0.40210  -0.41903   0.42192   0.97393   0.04792
  71        2S          0.63125  -0.30780  -0.11988  -0.71456  -0.29872
  72        3S          1.13918  -0.36713   0.13896  -0.52430   0.17867
  73        4PX        -0.12557   0.12843   0.04791  -0.04796  -0.03125
  74        4PY         0.39199   0.79887  -0.27912  -0.36475   0.12702
  75        4PZ         0.06686  -0.37269  -0.45731   0.12656   0.12798
  76        5PX         0.61525  -0.57635   0.42403  -0.32774   0.42754
  77        5PY         0.26239  -0.60754   0.22031  -0.20709  -0.41451
  78        5PZ        -0.03363  -0.37590  -0.40064   0.00831   0.68768
                          36        37        38        39        40
     Eigenvalues --     0.00000   0.00000   0.00000   0.00000   0.00000
   1 1   C  1S          0.02715   0.03220  -0.00186  -0.00188   0.02046
   2        2S         -0.01609  -0.02899  -0.03516  -0.07112   0.34636
   3        3S         -0.26091   1.10559   0.60715  -1.94131   2.08652
   4        4S          0.09962  -1.33680  -0.78111   1.65189  -1.77463
   5        5PX        -0.02737  -0.18546  -0.01698  -0.20962   0.16322
   6        5PY        -0.23830   0.51506   0.09969  -0.09607  -0.11566
   7        5PZ         0.04545   0.00553   0.04944  -0.08197  -0.01172
   8        6PX         0.77171  -0.29506  -0.25925  -0.19104   0.62611
   9        6PY        -0.01946  -0.43629  -0.04462   1.00869  -1.45202
  10        6PZ        -0.15820   0.13473   0.00757   0.04908  -0.00332
  11        7PX        -0.38190   0.16459   0.16518   0.38130  -0.06054
  12        7PY         0.13487  -0.73550  -0.28731   1.03365  -0.82881
  13        7PZ         0.06300   0.40205  -0.04631  -0.11011  -0.03451
  14        8D 0        0.42554  -0.06353  -0.14981   0.28162  -0.34157
  15        8D+1        0.61369  -0.21045   0.13777   0.26500   0.45681
  16        8D-1       -0.08349   0.13162  -0.03360   0.09609  -0.01705
  17        8D+2        0.25433   0.08378   0.04715  -0.44269   0.37573
  18        8D-2        0.32025   0.37630   0.03877   0.31011  -0.11876
  19        9D 0       -0.25364   0.09354   0.21289   0.32432   0.09346
  20        9D+1        0.60957  -0.17172  -0.55205  -0.09579   0.17571
  21        9D-1        0.41940  -0.57658  -0.05417   0.24746   0.03450
  22        9D+2        0.03176   1.05686   0.32149  -0.99699   0.36719
  23        9D-2        0.22512   0.06184  -0.06322  -0.16527   0.40622
  24 2   O  1S          0.01704  -0.00827  -0.00479  -0.02896   0.02504
  25        2S          0.03394   0.10480   0.17617  -0.04425   0.32316
  26        3S         -0.26246  -0.19791  -0.28529   1.37940  -1.53424
  27        4S          0.73656  -0.31239  -0.20242   0.65270   0.13576
  28        5PX        -0.19503  -0.10108   0.00724  -0.35933   0.15446
  29        5PY        -0.14270  -0.04150  -0.04705  -0.29970  -0.07613
  30        5PZ         0.02458   0.17286  -0.43714   0.09580   0.15919
  31        6PX         0.02180  -0.14746   0.09012   0.01244   0.40069
  32        6PY         0.00282  -0.21492  -0.06111   1.26606  -0.54764
  33        6PZ        -0.44234  -0.24187   0.91645  -0.15644  -0.44723
  34        7PX        -0.13903  -0.21061   0.00839  -0.41078   0.28866
  35        7PY         0.08873   0.00944   0.02500  -0.51838   0.36772
  36        7PZ        -0.08143  -0.01744  -0.49488   0.21722  -0.02111
  37        8D 0       -0.08626  -0.58216  -0.19792  -0.07852  -0.12203
  38        8D+1       -0.00052  -0.07127  -0.32243   0.27869   0.17965
  39        8D-1        0.04933  -0.15366   0.09809   0.08726  -0.04267
  40        8D+2        0.23801   0.06043  -0.13146   0.08670   0.06940
  41        8D-2       -0.05974  -0.27316   0.00907   0.01510   0.22764
  42        9D 0        0.16360   0.32860   0.04142  -0.15545  -0.12023
  43        9D+1        0.35087  -0.09310   0.51336  -0.04537   0.22496
  44        9D-1       -0.51081   0.28090  -0.09484   0.15377   0.08337
  45        9D+2       -0.20640   0.10385   0.12550  -0.09443  -0.13440
  46        9D-2        0.21430   0.38758   0.08540  -0.21794   0.07235
  47 3   O  1S         -0.02546  -0.00314   0.01167  -0.00800   0.01643
  48        2S         -0.44516   0.32275   0.23636  -0.14950   0.30723
  49        3S          1.05196  -1.15470  -0.76976   0.96491  -1.15934
  50        4S         -1.19530  -0.17806   0.62971   1.00700  -0.33953
  51        5PX        -0.00397  -0.00578  -0.02983  -0.01109  -0.17111
  52        5PY         0.03937   0.29766   0.12964   0.03252   0.07655
  53        5PZ        -0.04362  -0.03227   0.13470   0.03657   0.07487
  54        6PX        -0.01683  -0.12261  -0.05987   0.29160  -0.15554
  55        6PY         0.05897  -0.84580  -0.37220   0.44245  -0.20421
  56        6PZ         0.61151  -0.17472  -0.47701   0.15541   0.21680
  57        7PX        -0.06529   0.17798   0.18904  -0.14570  -0.78242
  58        7PY        -0.20661   0.28751   0.13076   0.08852   0.16236
  59        7PZ         0.51587  -0.60228   0.24717  -0.06327   0.08338
  60        8D 0        0.06898   0.09770   0.03975   0.30116   0.08098
  61        8D+1        0.05043  -0.07318   0.41820   0.10554   0.04325
  62        8D-1       -0.15016   0.05519  -0.33200   0.08272  -0.07333
  63        8D+2        0.04849  -0.28638  -0.14887  -0.28468   0.28895
  64        8D-2       -0.09937   0.10818   0.01951  -0.08821   0.08683
  65        9D 0       -0.26992  -0.16389  -0.04410  -0.22277   0.36647
  66        9D+1        0.15426  -0.22145  -0.18845   0.35486   0.31042
  67        9D-1        0.29321  -0.09578   0.01592  -0.23037   0.07776
  68        9D+2       -0.07928   0.43246   0.22717   0.08566  -0.58735
  69        9D-2        0.01358  -0.08469  -0.03608   0.13424  -0.10772
  70 4   H  1S          0.62262   0.29375   0.00610  -0.25881   0.16841
  71        2S         -0.31213   0.31573   0.16074  -1.22234   1.13751
  72        3S          0.07258   1.18739   0.32917  -1.82752   1.00983
  73        4PX        -0.12536  -0.20413  -0.01663  -0.10033  -0.22441
  74        4PY        -0.31325   0.19019   0.14341  -0.13214  -0.09563
  75        4PZ        -0.15372  -0.04813   0.03276  -0.03368  -0.15380
  76        5PX        -0.76068  -0.18259   0.12382  -0.02159  -0.34509
  77        5PY        -0.02963   0.48639   0.16651   0.16927   0.34093
  78        5PZ        -0.14777   0.35012   0.23705  -0.23978   0.06170
                          41        42        43        44        45
     Eigenvalues --     0.00000   0.00000   0.00000   0.00000   0.00000
   1 1   C  1S         -0.04732   0.02111  -0.00592  -0.01411   0.00223
   2        2S         -0.47093  -0.20928  -0.21423  -0.08913   0.42553
   3        3S          0.76032   0.49474  -0.54405   0.33107   0.29735
   4        4S         -0.75243  -0.66505   0.17145  -0.21778  -0.50374
   5        5PX        -0.09912  -0.04327   0.01014   0.12813   0.10424
   6        5PY         0.10347  -0.06525   0.10320  -0.07207  -0.00951
   7        5PZ        -0.05267   0.03857   0.17704   0.03791  -0.07463
   8        6PX         0.43981  -0.24611  -0.02049  -0.34690   0.27702
   9        6PY         0.23380  -0.30659   0.53036  -0.30117  -0.13800
  10        6PZ        -0.03053   0.03219  -0.04419   0.22068   0.19395
  11        7PX        -0.74412  -0.20034  -0.56391   0.38706  -0.02371
  12        7PY        -0.85373  -0.03007   0.14078   0.18522  -0.22705
  13        7PZ        -0.30405   0.05543  -0.26766   0.01080   0.06623
  14        8D 0       -0.24610   0.10269   0.00918  -0.04869  -0.09581
  15        8D+1       -0.04021  -0.06909   0.00153  -0.13617   0.29799
  16        8D-1       -0.00885  -0.22602   0.15952   0.26401   0.28965
  17        8D+2        0.36186   0.10985  -0.15023  -0.21109   0.27069
  18        8D-2       -0.06898   0.11878  -0.13325   0.18955  -0.10398
  19        9D 0        0.11412  -0.23010  -0.63235  -0.11822   0.47968
  20        9D+1        0.21589  -0.09032   0.21280   0.13491  -0.50809
  21        9D-1        0.57529  -0.32970   0.31604  -0.09383  -0.11107
  22        9D+2        0.17730  -0.29121  -0.79498   0.12573   0.41892
  23        9D-2        0.27048  -0.28264  -0.03910  -0.26210  -0.00374
  24 2   O  1S          0.00855   0.01639   0.01515   0.00717   0.00173
  25        2S          0.20594  -0.21838  -0.42326   0.07583   0.11058
  26        3S         -0.80484   0.04449   0.56030  -0.20658  -0.39762
  27        4S          0.19799   0.30181   0.67976  -0.23421   0.20282
  28        5PX        -0.08555  -0.13107  -0.07681   0.08123   0.07727
  29        5PY        -0.06774  -0.04012  -0.04724   0.04419  -0.14521
  30        5PZ        -0.01979  -0.00474   0.04186  -0.02496  -0.04943
  31        6PX         0.23459   0.25868   0.07136  -0.08997   0.16038
  32        6PY        -0.47145   0.24235   0.35917   0.02712  -0.00056
  33        6PZ         0.07253  -0.02964   0.03290   0.02325   0.00217
  34        7PX         0.05915  -0.05329  -0.01596   0.17645  -0.28227
  35        7PY         0.38429  -0.00273   0.19417  -0.06852  -0.13580
  36        7PZ         0.17547  -0.01125  -0.22227  -0.26562   0.15317
  37        8D 0        0.19684   0.35809  -0.28883   0.16709   0.34532
  38        8D+1        0.11874  -0.13243   0.12791   0.18414  -0.11858
  39        8D-1        0.11242  -0.26812   0.19343   0.38105  -0.08080
  40        8D+2        0.01428   0.27890  -0.06819   0.10922  -0.00489
  41        8D-2       -0.07810  -0.53207  -0.12746  -0.20887  -0.14715
  42        9D 0       -0.37484  -0.32479   0.44827  -0.24382  -0.29166
  43        9D+1       -0.36485   0.32848  -0.19161  -0.25716   0.27635
  44        9D-1       -0.37550   0.55323  -0.41365  -0.48619  -0.14949
  45        9D+2        0.22099  -0.19609   0.19714  -0.30659  -0.00498
  46        9D-2        0.23109   0.51276  -0.11337   0.26128   0.38481
  47 3   O  1S         -0.01985  -0.00161  -0.01732   0.01627  -0.00664
  48        2S          0.45911   0.36232   0.12041   0.08471   0.01952
  49        3S         -0.71410  -0.66633   0.22678  -0.55218   0.12297
  50        4S         -0.63847   0.00368   0.33473   0.34964  -0.26799
  51        5PX        -0.15850  -0.04367  -0.04703  -0.00485  -0.02548
  52        5PY        -0.12627  -0.09683  -0.16819   0.30418  -0.22499
  53        5PZ        -0.02905   0.01357   0.12056   0.06886  -0.01999
  54        6PX         0.07473  -0.18041   0.25292  -0.10945   0.01452
  55        6PY        -0.10650  -0.00839   0.53988  -0.54370   0.25629
  56        6PZ         0.23520  -0.16702  -0.06967  -0.13258  -0.02303
  57        7PX         0.21923   0.01200   0.28883  -0.03893  -0.12410
  58        7PY         0.04211   0.22508   0.07691   0.21915  -0.29887
  59        7PZ         0.23481  -0.05013   0.38767  -0.15272  -0.55282
  60        8D 0        0.52327  -0.23412  -0.37171  -0.10091  -0.22078
  61        8D+1       -0.04347   0.07980   0.00019   0.23386  -0.30861
  62        8D-1        0.00159  -0.16495   0.12404   0.20361   0.00089
  63        8D+2       -0.03681  -0.14718  -0.30828   0.00976   0.02828
  64        8D-2        0.09352  -0.03953   0.12524  -0.31529  -0.22397
  65        9D 0       -0.48021   0.37220   0.59208   0.13937  -0.01149
  66        9D+1        0.09059  -0.13284  -0.01982  -0.16883   0.44973
  67        9D-1        0.04702   0.25061  -0.22333  -0.25857  -0.22838
  68        9D+2        0.30677   0.12595   0.38470  -0.11411   0.04840
  69        9D-2       -0.14832   0.19258   0.02181   0.61217   0.03834
  70 4   H  1S         -0.11315   0.09824  -0.44430  -0.05487   0.27483
  71        2S          0.40013  -0.07036  -0.64479   0.09644   0.11079
  72        3S          0.91700   0.33668  -0.50829   0.18586   0.35586
  73        4PX        -0.12343  -0.02026  -0.11720   0.15685   0.10641
  74        4PY         0.23222  -0.16809  -0.24285   0.18523  -0.00901
  75        4PZ        -0.11423   0.28942  -0.42513  -0.29103  -0.43440
  76        5PX        -0.11187   0.09881   0.27950  -0.20205  -0.14221
  77        5PY        -0.56933  -0.24989  -0.05755  -0.43736   0.77405
  78        5PZ        -0.30469  -0.08508   0.15541   0.35024   0.52388
                          46        47        48        49        50
     Eigenvalues --    -0.00000  -0.00000  -0.00000  -0.00000  -0.00000
   1 1   C  1S          0.02884  -0.06150   0.03651   0.03941  -0.01270
   2        2S          0.31174   0.33690   0.21489  -0.15708  -0.37985
   3        3S          0.69303  -0.32815   0.63120   0.88243  -0.37047
   4        4S         -0.67358   0.21564  -0.56323  -1.09271   0.39485
   5        5PX         0.03762   0.05469  -0.08240   0.11522   0.01425
   6        5PY         0.02477   0.12851   0.02522  -0.03739   0.08899
   7        5PZ         0.19186  -0.24129  -0.06677  -0.29296  -0.16820
   8        6PX        -0.07229   0.51517   0.07033  -0.41967   0.29002
   9        6PY        -0.51890   0.09906  -0.52327  -0.10932   0.38992
  10        6PZ        -0.10952  -0.13448   0.09367   0.18496  -0.05683
  11        7PX        -0.12056   0.06691   0.26959  -0.14215  -0.07192
  12        7PY        -0.48389   0.04038  -0.41750  -0.60436   0.21787
  13        7PZ         0.29387  -0.26308  -0.04109  -0.05132  -0.24666
  14        8D 0       -0.08848  -0.31803   0.01913   0.16694   0.13356
  15        8D+1        0.03770  -0.03652  -0.24667   0.72128   0.62840
  16        8D-1        0.29735   0.04628   0.03196   0.05542   0.39011
  17        8D+2        0.25983   0.14317   0.31039   0.18012  -0.24579
  18        8D-2        0.01346   0.01767   0.19809  -0.09886   0.02475
  19        9D 0        0.38217   0.08523   0.41968   0.03852  -0.28640
  20        9D+1        0.18820   0.37867   0.23040  -0.09081  -0.12509
  21        9D-1       -0.29037   0.27675  -0.07631  -0.07075  -0.02746
  22        9D+2        0.36689  -0.15257   0.83629   0.64224   0.11507
  23        9D-2       -0.05468   0.14777   0.37818  -0.17879   0.27989
  24 2   O  1S          0.00308   0.00510  -0.00739  -0.00102   0.00560
  25        2S          0.03524   0.05610   0.10914  -0.06232  -0.08452
  26        3S         -0.23797  -0.28492  -0.12016  -0.05524   0.14545
  27        4S         -0.44924   1.01078  -0.43078  -0.75293   0.03583
  28        5PX         0.01200   0.09311  -0.00429  -0.02544  -0.03227
  29        5PY        -0.03758  -0.29731   0.01859   0.14190   0.16960
  30        5PZ         0.08947  -0.01466  -0.03294   0.08297   0.04114
  31        6PX         0.20038  -0.05246  -0.01395   0.07392  -0.19542
  32        6PY        -0.17413   0.38695  -0.39791  -0.48855  -0.34633
  33        6PZ        -0.08036   0.01754   0.02892  -0.39020  -0.19458
  34        7PX         0.20402  -0.48173  -0.22400   0.37900  -0.10979
  35        7PY         0.05367  -0.12077  -0.21064   0.18677   0.02071
  36        7PZ        -0.45713   0.15801  -0.11206   0.23967   0.18636
  37        8D 0        0.20524  -0.03623   0.34415  -0.02650   0.02665
  38        8D+1       -0.12514  -0.05550   0.20001   0.39341  -0.44647
  39        8D-1        0.17541   0.25864   0.25235   0.19321  -0.04049
  40        8D+2       -0.02102  -0.02700   0.36799  -0.36618   0.12108
  41        8D-2       -0.16326   0.09137   0.13038  -0.28909   0.15740
  42        9D 0       -0.08143   0.01183  -0.31365   0.12571  -0.09786
  43        9D+1        0.24742  -0.39684  -0.28370  -0.18553   0.30209
  44        9D-1        0.00083  -0.20260  -0.11038  -0.23147  -0.23681
  45        9D+2        0.09893   0.05367  -0.31348   0.36205  -0.11189
  46        9D-2        0.27896   0.02041  -0.10476   0.39061  -0.33047
  47 3   O  1S          0.00219  -0.01875   0.00255   0.00676  -0.01749
  48        2S          0.20475  -0.10892  -0.26753   0.24441   0.07124
  49        3S         -0.51951   0.49296  -0.01137  -0.71791   0.11322
  50        4S         -0.06350  -0.49161  -0.61204   0.42487  -0.14136
  51        5PX        -0.02885  -0.22933   0.00096   0.13108   0.00954
  52        5PY        -0.12185  -0.12313  -0.00699   0.01324   0.21498
  53        5PZ         0.12389  -0.13665  -0.00962   0.09985  -0.11841
  54        6PX        -0.18909   0.38933  -0.13806  -0.15427   0.28785
  55        6PY        -0.04684   0.36592  -0.26451  -0.37513  -0.13387
  56        6PZ        -0.19973   0.40096  -0.00676   0.19325   0.47266
  57        7PX         0.08849  -0.60148  -0.18964   0.53249   0.01679
  58        7PY         0.00886  -0.16296   0.10156   0.07609   0.00648
[...]
 activities (A**4/AMU), depolarization ratios for plane and unpolarized
 incident light, reduced masses (AMU), force constants (mDyne/A),
 and normal coordinates:
                      1                      2                      3
                      A                      A                      A
 Frequencies --    732.2225              1030.8513              1330.5136
 Red. masses --     11.6498                 1.8503                11.6890
 Frc consts  --      3.6801                 1.1585                12.1917
 IR Inten    --     21.5655                 1.0579               136.9880
  Atom  AN      X      Y      Z        X      Y      Z        X      Y      Z
     1   6    -0.00   0.51  -0.00     0.00  -0.00  -0.25     0.00   0.63  -0.00
     2   8    -0.46  -0.21   0.00    -0.00   0.00   0.07     0.39  -0.25   0.00
     3   8     0.46  -0.21   0.00     0.00   0.00   0.07    -0.39  -0.25   0.00
     4   1    -0.00   0.47  -0.00    -0.00  -0.00   0.96    -0.00   0.43  -0.00
                      4                      5                      6
                      A                      A                      A
 Frequencies --   1354.9423              1645.7568              2590.2323
 Red. masses --      1.0948                11.1063                 1.0635
 Frc consts  --      1.1842                17.7235                 4.2039
 IR Inten    --     11.5340               837.1853               599.3472
  Atom  AN      X      Y      Z        X      Y      Z        X      Y      Z
     1   6    -0.01   0.00  -0.00     0.81  -0.00   0.00     0.00  -0.07  -0.00
     2   8    -0.03   0.05   0.00    -0.29   0.12  -0.00     0.00  -0.01  -0.00
     3   8    -0.03  -0.05  -0.00    -0.29  -0.12   0.00    -0.00  -0.01  -0.00
     4   1     1.00   0.00  -0.00    -0.39  -0.00  -0.00    -0.00   1.00   0.00

 -------------------
 - Thermochemistry -
 -------------------
 Temperature   298.150 Kelvin.  Pressure   1.00000 Atm.
 Atom     1 has atomic number  6 and mass  12.00000
 Atom     2 has atomic number  8 and mass  15.99491
 Atom     3 has atomic number  8 and mass  15.99491
 Atom     4 has atomic number  1 and mass   1.00783
 Molecular mass:    44.99765 amu.
 Principal axes and moments of inertia in atomic units:
                           1         2         3
     Eigenvalues --    16.96997 148.70228 165.67225
           X            1.00000  -0.00001  -0.00000
           Y            0.00001   1.00000   0.00013
           Z            0.00000  -0.00013   1.00000
 This molecule is an asymmetric top.
 Rotational symmetry number  1.
 Rotational temperatures (Kelvin)      5.10395     0.58247     0.52280
 Rotational constants (GHZ):         106.34911    12.13661    10.89344
 Zero-point vibrational energy      51945.0 (Joules/Mol)
                                   12.41514 (Kcal/Mol)
 Vibrational temperatures:   1053.50  1483.17  1914.31  1949.46  2367.88
          (Kelvin)           3726.77
 
 Zero-point correction=                           0.019785 (Hartree/Particle)
 Thermal correction to Energy=                    0.022772
 Thermal correction to Enthalpy=                  0.023716
 Thermal correction to Gibbs Free Energy=        -0.004034
 Sum of electronic and zero-point Energies=           -189.220739
 Sum of electronic and thermal Energies=              -189.217752
 Sum of electronic and thermal Enthalpies=            -189.216807
 Sum of electronic and thermal Free Energies=         -189.244558
 
                     E (Thermal)             CV                S
                      KCal/Mol        Cal/Mol-Kelvin    Cal/Mol-Kelvin
 Total                   14.290              7.378             58.406
 Electronic               0.000              0.000              0.000
 Translational            0.889              2.981             37.338
 Rotational               0.889              2.981             20.663
 Vibrational             12.512              1.416              0.405
                       Q            Log10(Q)             Ln(Q)
 Total Bot       0.717334D+02          1.855721          4.272956
 Total V=0       0.903825D+11         10.956085         25.227317
 Vib (Bot)       0.826062D-09         -9.082987        -20.914351
 Vib (V=0)       0.104082D+01          0.017376          0.040010
 Electronic      0.100000D+01          0.000000          0.000000
 Translational   0.118642D+08          7.074239         16.289037
 Rotational      0.731930D+04          3.864470          8.898271
 
                                                       HCOO-_UB3LYP-aug-cc-pVDZ
                                                             IR Spectrum
 
     2                                              1             11              1                                                  
     5                                              6             33              0              7                                   
     9                                              4             53              3              3                                   
     0                                              6             51              1              2                                   
 
     X                                              X             XX              X              X                                   
     X                                              X              X                                                                 
     X                                              X              X                                                                 
     X                                              X                                                                                
     X                                              X                                                                                
     X                                              X                                                                                
     X                                              X                                                                                
     X                                              X                                                                                
     X                                              X                                                                                
     X                                              X                                                                                
     X                                              X                                                                                
     X                                              X                                                                                
     X                                              X                                                                                
     X                                              X                                                                                
                                                    X                                                                                
                                                    X                                                                                
                                                    X                                                                                
                                                    X                                                                                
                                                    X                                                                                
                                                    X                                                                                
 
 ***** Axes restored to original set *****
 -------------------------------------------------------------------
 Center     Atomic                   Forces (Hartrees/Bohr)
 Number     Number              X              Y              Z
 -------------------------------------------------------------------
      1        6           0.000193918    0.000242455    0.000163421
      2        8          -0.000142573   -0.000126942   -0.000205853
      3        8          -0.000088700   -0.000209161   -0.000166018
      4        1           0.000037355    0.000093648    0.000208450
 -------------------------------------------------------------------
 Cartesian Forces:  Max     0.000242455 RMS     0.000167010
 Force constants in Cartesian coordinates: 
                1             2             3             4             5 
      1  0.397928D+00
      2 -0.204261D+00  0.722041D+00
      3  0.197528D+00 -0.305065D-01  0.507400D+00
      4 -0.215739D+00  0.111596D+00 -0.172946D+00  0.223115D+00
      5  0.111984D+00 -0.175845D+00  0.120345D+00 -0.170083D+00  0.215328D+00
      6 -0.172701D+00  0.119701D+00 -0.280925D+00  0.225364D+00 -0.165280D+00
      7 -0.113778D+00  0.120509D+00 -0.184146D-02 -0.607810D-02  0.564446D-01
      8  0.120128D+00 -0.465656D+00 -0.350361D-01  0.511995D-01 -0.520689D-01
      9 -0.207157D-02 -0.343832D-01 -0.929563D-01 -0.187879D-01  0.477118D-01
     10 -0.684104D-01 -0.278442D-01 -0.227403D-01 -0.129763D-02  0.165367D-02
     11 -0.278511D-01 -0.805397D-01 -0.548027D-01  0.728731D-02  0.125862D-01
     12 -0.227557D-01 -0.548115D-01 -0.133519D+00 -0.336297D-01 -0.277667D-02
                6             7             8             9            10 
      6  0.294369D+00
      7 -0.157389D-01  0.101497D+00
      8  0.391821D-01 -0.180279D+00  0.561086D+00
      9  0.209847D-01  0.215249D-01  0.193353D-01  0.701186D-01
     10 -0.369242D-01  0.183590D-01  0.895151D-02 -0.665438D-03  0.513491D-01
     11  0.639715D-02  0.332477D-02 -0.433608D-01 -0.326639D-01  0.172390D-01
     12 -0.344295D-01 -0.394459D-02 -0.234813D-01  0.185297D-02  0.603300D-01
               11            12 
     11  0.111314D+00
     12  0.810694D-01  0.166096D+00
 FormGI is forming the generalized inverse of G from B-inverse, IUseBI=4.
 Force constants in internal coordinates: 
                1             2             3             4             5 
      1  0.623718D+00
      2  0.895765D-01  0.623590D+00
      3  0.384947D-01  0.384991D-01  0.242733D+00
      4  0.220126D-01  0.220029D-01 -0.277438D-01  0.180258D+00
      5  0.193660D-01 -0.413862D-01  0.138697D-01 -0.901198D-01  0.121234D+00
      6 -0.413786D-01  0.193833D-01  0.138741D-01 -0.901384D-01 -0.311138D-01
      7 -0.545037D-04 -0.545130D-04 -0.170030D-04  0.452048D-04 -0.807663D-04
                6             7 
      6  0.121252D+00
      7 -0.807383D-04  0.110160D+00
 Leave Link  716 at Mon Aug  3 15:41:17 2020, MaxMem=   524288000 cpu:               0.2 elap:               0.0
 (Enter /home/ubuntu/g16/l103.exe)

 GradGradGradGradGradGradGradGradGradGradGradGradGradGradGradGradGradGrad
 Berny optimization.
 Red2BG is reusing G-inverse.
 Internal  Forces:  Max     0.000354298 RMS     0.000208612
 Search for a local minimum.
 Step number   1 out of a maximum of    2
 All quantities printed in internal units (Hartrees-Bohrs-Radians)
 Second derivative matrix not updated -- analytic derivatives used.
 The second derivative matrix:
                          R1        R2        R3        A1        A2
           R1           0.62372
           R2           0.08958   0.62359
           R3           0.03849   0.03850   0.24273
           A1           0.02201   0.02200  -0.02774   0.18026
           A2           0.01937  -0.04139   0.01387  -0.09012   0.12123
           A3          -0.04138   0.01938   0.01387  -0.09014  -0.03111
           D1          -0.00005  -0.00005  -0.00002   0.00005  -0.00008
                          A3        D1
           A3           0.12125
           D1          -0.00008   0.11016
 ITU=  0
     Eigenvalues ---    0.11016   0.14292   0.21108   0.29324   0.54351
     Eigenvalues ---    0.72203
 Angle between quadratic step and forces=  22.65 degrees.
 Linear search not attempted -- first point.
 Iteration  1 RMS(Cart)=  0.00077807 RMS(Int)=  0.00000041
 Iteration  2 RMS(Cart)=  0.00000036 RMS(Int)=  0.00000011
 ITry= 1 IFail=0 DXMaxC= 1.09D-03 DCOld= 1.00D+10 DXMaxT= 3.00D-01 DXLimC= 3.00D+00 Rises=F
 Variable       Old X    -DE/DX   Delta X   Delta X   Delta X     New X
                                 (Linear)    (Quad)   (Total)
    R1        2.37741  -0.00015   0.00000  -0.00022  -0.00022   2.37719
    R2        2.37748  -0.00017   0.00000  -0.00029  -0.00029   2.37719
    R3        2.15812  -0.00023   0.00000  -0.00063  -0.00063   2.15749
    A1        2.27157   0.00035   0.00000   0.00129   0.00129   2.27286
    A2        2.00593  -0.00019   0.00000  -0.00077  -0.00077   2.00516
    A3        2.00568  -0.00016   0.00000  -0.00052  -0.00052   2.00516
    D1       -3.14061  -0.00011   0.00000  -0.00098  -0.00098   3.14159
         Item               Value     Threshold  Converged?
 Maximum Force            0.000354     0.000450     YES
 RMS     Force            0.000209     0.000300     YES
 Maximum Displacement     0.001094     0.001800     YES
 RMS     Displacement     0.000778     0.001200     YES
 Predicted change in Energy=-5.100615D-07
 Optimization completed.
    -- Stationary point found.
                           ----------------------------
                           !   Optimized Parameters   !
                           ! (Angstroms and Degrees)  !
 --------------------------                            --------------------------
 ! Name  Definition              Value          Derivative Info.                !
 --------------------------------------------------------------------------------
 ! R1    R(1,2)                  1.2581         -DE/DX =   -0.0002              !
 ! R2    R(1,3)                  1.2581         -DE/DX =   -0.0002              !
 ! R3    R(1,4)                  1.142          -DE/DX =   -0.0002              !
 ! A1    A(2,1,3)              130.1515         -DE/DX =    0.0004              !
 ! A2    A(2,1,4)              114.9314         -DE/DX =   -0.0002              !
 ! A3    A(3,1,4)              114.9171         -DE/DX =   -0.0002              !
 ! D1    D(2,1,4,3)            180.0562         -DE/DX =   -0.0001              !
 --------------------------------------------------------------------------------
 GradGradGradGradGradGradGradGradGradGradGradGradGradGradGradGradGradGrad

 Leave Link  103 at Mon Aug  3 15:41:17 2020, MaxMem=   524288000 cpu:               0.0 elap:               0.0
 (Enter /home/ubuntu/g16/l9999.exe)

 ----------------------------------------------------------------------

 Electric dipole moment (input orientation):
 (Debye = 10**-18 statcoulomb cm , SI units = C m)
                  (au)            (Debye)         (10**-30 SI)
   Tot        0.545266D+00      0.138593D+01      0.462296D+01
   x         -0.162728D+00     -0.413613D+00     -0.137966D+01
   y         -0.288732D+00     -0.733884D+00     -0.244797D+01
   z         -0.432976D+00     -0.110052D+01     -0.367092D+01

 Dipole polarizability, Alpha (input orientation).
 (esu units = cm**3 , SI units = C**2 m**2 J**-1)
 Alpha(0;0):
               (au)            (10**-24 esu)      (10**-40 SI)
   iso        0.340272D+02      0.504231D+01      0.561033D+01
   aniso      0.172907D+02      0.256221D+01      0.285084D+01
   xx         0.285372D+02      0.422877D+01      0.470514D+01
   yx        -0.475450D+01     -0.704545D+00     -0.783912D+00
   yy         0.387193D+02      0.573760D+01      0.638394D+01
   zx         0.692100D+01      0.102559D+01      0.114112D+01
   zy         0.165943D+01      0.245902D+00      0.273603D+00
   zz         0.348252D+02      0.516056D+01      0.574190D+01

 ----------------------------------------------------------------------

 Dipole orientation:
     6          6.35820746          3.76517270         -7.79104970
     8          7.30577197          5.70195764         -8.79257633
     8          5.41135598          1.82834408         -8.79332556
     1          6.35933920          3.76391805         -5.63292593

 Electric dipole moment (dipole orientation):
 (Debye = 10**-18 statcoulomb cm , SI units = C m)
                  (au)            (Debye)         (10**-30 SI)
   Tot        0.545266D+00      0.138593D+01      0.462296D+01
   x          0.000000D+00      0.000000D+00      0.000000D+00
   y          0.000000D+00      0.000000D+00      0.000000D+00
   z          0.545266D+00      0.138593D+01      0.462296D+01

 Dipole polarizability, Alpha (dipole orientation).
 (esu units = cm**3 , SI units = C**2 m**2 J**-1)
 Alpha(0;0):
               (au)            (10**-24 esu)      (10**-40 SI)
   iso        0.340272D+02      0.504231D+01      0.561033D+01
   aniso      0.172907D+02      0.256221D+01      0.285084D+01
   xx         0.261336D+02      0.387260D+01      0.430885D+01
   yx         0.725358D+01      0.107487D+01      0.119595D+01
   yy         0.374180D+02      0.554477D+01      0.616939D+01
   zx         0.455513D-02      0.675001D-03      0.751040D-03
   zy        -0.172080D-02     -0.254996D-03     -0.283722D-03
   zz         0.385301D+02      0.570957D+01      0.635275D+01

 ----------------------------------------------------------------------
 1\1\GINC-192-168-10-17\Freq\UB3LYP\Aug-CC-pVDZ\C1H1O2(1-)\UBUNTU\03-Au
 g-2020\0\\#P Geom=AllCheck Guess=TCheck SCRF=Check GenChk UB3LYP/Aug-C
 C-pVDZ Freq\\HCOO-_UB3LYP-aug-cc-pVDZ\\-1,1\C,4.6035010421,0.205737279
 2,3.3247252615\O,5.3284835194,-0.4225095127,4.1386338447\O,4.195328318
 8,1.395461311,3.352691008\H,4.2631871197,-0.3984890775,2.4173498857\\V
 ersion=ES64L-G16RevA.03\State=1-A\HF=-189.2405236\S2=0.\S2-1=0.\S2A=0.
 \RMSD=4.400e-10\RMSF=1.670e-04\ZeroPoint=0.0197848\Thermal=0.0227719\D
 ipole=-0.1627278,-0.2887321,-0.4329761\DipoleDeriv=0.7548749,-0.724202
 1,0.7506989,-0.7242196,1.9615678,-0.0563306,0.7506602,-0.0563523,1.224
 9032,-0.9757994,0.4559148,-0.4522216,0.3452622,-1.0313751,0.2730999,-0
 .516162,0.452814,-1.1119541,-0.7338946,0.3656045,-0.1106372,0.4763538,
 -1.7196242,0.085231,-0.0464129,-0.0942369,-0.6656677,-0.0451809,-0.097
 3172,-0.1878401,-0.0973963,-0.2105685,-0.3020003,-0.1880853,-0.3022248
 ,-0.4472814\Polar=28.5371622,-4.7545034,38.7192663,6.9209958,1.6594299
 ,34.8251872\Quadrupole=1.0669973,-2.2486223,1.181625,2.8086962,-1.7081
 095,1.4450313\PG=C01 [X(C1H1O2)]\NImag=0\\0.39792780,-0.20426123,0.722
 04072,0.19752807,-0.03050647,0.50739999,-0.21573908,0.11159598,-0.1729
 4627,0.22311481,0.11198445,-0.17584509,0.12034525,-0.17008276,0.215327
 82,-0.17270083,0.11970114,-0.28092452,0.22536391,-0.16528035,0.2943692
 4,-0.11377828,0.12050945,-0.00184146,-0.00607810,0.05644464,-0.0157388
 5,0.10149742,0.12012788,-0.46565592,-0.03503609,0.05119946,-0.05206894
 ,0.03918206,-0.18027885,0.56108562,-0.00207157,-0.03438317,-0.09295627
 ,-0.01878789,0.04771176,0.02098474,0.02152490,0.01933528,0.07011856,-0
 .06841044,-0.02784420,-0.02274034,-0.00129763,0.00165367,-0.03692423,0
 .01835897,0.00895151,-0.00066544,0.05134911,-0.02785110,-0.08053971,-0
 .05480269,0.00728731,0.01258621,0.00639715,0.00332477,-0.04336076,-0.0
 3266388,0.01723902,0.11131427,-0.02275566,-0.05481150,-0.13351920,-0.0
 3362974,-0.00277667,-0.03442945,-0.00394459,-0.02348125,0.00185297,0.0
 6033000,0.08106942,0.16609568\\-0.00019392,-0.00024246,-0.00016342,0.0
 0014257,0.00012694,0.00020585,0.00008870,0.00020916,0.00016602,-0.0000
 3736,-0.00009365,-0.00020845\\\@


 WE LEARN WISDOM FROM FAILURE MUCH MORE THAN FROM SUCCESS.
 WE DISCOVER WHAT WILL DO BY FINDING OUT WHAT WILL NOT DO...
 AND HE WHO NEVER MADE A MISTAKE NEVER MADE A DISCOVERY
 Job cpu time:       0 days  0 hours  1 minutes 56.8 seconds.
 Elapsed time:       0 days  0 hours  0 minutes 16.7 seconds.
 File lengths (MBytes):  RWF=     10 Int=      0 D2E=      0 Chk=      2 Scr=      1
 Normal termination of Gaussian 16 at Mon Aug  3 15:41:17 2020.
