 Entering Gaussian System, Link 0=/home/ubuntu/g16/g16
 Input=HF_UB3LYP-aug-cc-pVDZ-Opt.gjf
 Output=HF_UB3LYP-aug-cc-pVDZ-Opt.log
 Initial command:
 /home/ubuntu/g16/l1.exe "/home/ubuntu/g16/Gau-8545.inp" -scrdir="/home/ubuntu/g16/"
 Entering Link 1 = /home/ubuntu/g16/l1.exe PID=      8547.
  
 Copyright (c) 1988,1990,1992,1993,1995,1998,2003,2009,2016,
            Gaussian, Inc.  All Rights Reserved.
  
 This is part of the Gaussian(R) 16 program.  It is based on
 the Gaussian(R) 09 system (copyright 2009, Gaussian, Inc.),
 the Gaussian(R) 03 system (copyright 2003, Gaussian, Inc.),
 the Gaussian(R) 98 system (copyright 1998, Gaussian, Inc.),
 the Gaussian(R) 94 system (copyright 1995, Gaussian, Inc.),
 the Gaussian 92(TM) system (copyright 1992, Gaussian, Inc.),
 the Gaussian 90(TM) system (copyright 1990, Gaussian, Inc.),
 the Gaussian 88(TM) system (copyright 1988, Gaussian, Inc.),
 the Gaussian 86(TM) system (copyright 1986, Carnegie Mellon
 University), and the Gaussian 82(TM) system (copyright 1983,
 Carnegie Mellon University). Gaussian is a federally registered
 trademark of Gaussian, Inc.
  
 This software contains proprietary and confidential information,
 including trade secrets, belonging to Gaussian, Inc.
  
 This software is provided under written license and may be
 used, copied, transmitted, or stored only in accord with that
 written license.
  
 The following legend is applicable only to US Government
 contracts under FAR:
  
                    RESTRICTED RIGHTS LEGEND
  
 Use, reproduction and disclosure by the US Government is
 subject to restrictions as set forth in subparagraphs (a)
 and (c) of the Commercial Computer Software - Restricted
 Rights clause in FAR 52.227-19.
  
 Gaussian, Inc.
 340 Quinnipiac St., Bldg. 40, Wallingford CT 06492
  
  
 ---------------------------------------------------------------
 Warning -- This program may not be used in any manner that
 competes with the business of Gaussian, Inc. or will provide
 assistance to any competitor of Gaussian, Inc.  The licensee
 of this program is prohibited from giving any competitor of
 Gaussian, Inc. access to this program.  By using this program,
 the user acknowledges that Gaussian, Inc. is engaged in the
 business of creating and licensing software in the field of
 computational chemistry and represents and warrants to the
 licensee that it is not a competitor of Gaussian, Inc. and that
 it will not use this program in any manner prohibited above.
 ---------------------------------------------------------------
  

 Cite this work as:
 Gaussian 16, Revision A.03,
 M. J. Frisch, G. W. Trucks, H. B. Schlegel, G. E. Scuseria, 
 M. A. Robb, J. R. Cheeseman, G. Scalmani, V. Barone, 
 G. A. Petersson, H. Nakatsuji, X. Li, M. Caricato, A. V. Marenich, 
 J. Bloino, B. G. Janesko, R. Gomperts, B. Mennucci, H. P. Hratchian, 
 J. V. Ortiz, A. F. Izmaylov, J. L. Sonnenberg, D. Williams-Young, 
 F. Ding, F. Lipparini, F. Egidi, J. Goings, B. Peng, A. Petrone, 
 T. Henderson, D. Ranasinghe, V. G. Zakrzewski, J. Gao, N. Rega, 
 G. Zheng, W. Liang, M. Hada, M. Ehara, K. Toyota, R. Fukuda, 
 J. Hasegawa, M. Ishida, T. Nakajima, Y. Honda, O. Kitao, H. Nakai, 
 T. Vreven, K. Throssell, J. A. Montgomery, Jr., J. E. Peralta, 
 F. Ogliaro, M. J. Bearpark, J. J. Heyd, E. N. Brothers, K. N. Kudin, 
 V. N. Staroverov, T. A. Keith, R. Kobayashi, J. Normand, 
 K. Raghavachari, A. P. Rendell, J. C. Burant, S. S. Iyengar, 
 J. Tomasi, M. Cossi, J. M. Millam, M. Klene, C. Adamo, R. Cammi, 
 J. W. Ochterski, R. L. Martin, K. Morokuma, O. Farkas, 
 J. B. Foresman, and D. J. Fox, Gaussian, Inc., Wallingford CT, 2016.
 
 ******************************************
 Gaussian 16:  ES64L-G16RevA.03 25-Dec-2016
                 1-Jan-2005 
 ******************************************
 %chk=HF_UB3LYP-aug-cc-pVDZ-Opt.chk
 %mem=500MW
 %nproc=7
 Will use up to    7 processors via shared memory.
 ----------------------------------------------------------------------
 #p opt=(maxcycles=777) freq ub3lyp/aug-cc-pVDZ pop=(Bonding,AllOrbital
 s,mk,no,nboread)
 ----------------------------------------------------------------------
 1/6=777,18=20,19=15,26=3,38=1/1,3;
 2/9=110,12=2,17=6,18=5,40=1/2;
 3/5=16,7=10,11=2,25=1,30=1,71=1,74=-5,116=2/1,2,3;
 4//1;
 5/5=2,38=5/2;
 6/7=2,8=2,9=2,10=2,15=8,20=1,22=-1,27=20,28=1,31=1,40=2,96=-1/1,2,7;
 7//1,2,3,16;
 1/6=777,18=20,19=15,26=3/3(2);
 2/9=110/2;
 99//99;
 2/9=110/2;
 3/5=16,7=10,11=2,25=1,30=1,71=1,74=-5,116=2/1,2,3;
 4/5=5,16=3,69=1/1;
 5/5=2,38=5/2;
 7//1,2,3,16;
 1/6=777,18=20,19=15,26=3/3(-5);
 2/9=110/2;
 6/7=2,8=2,9=2,10=2,15=8,19=2,20=1,22=-1,27=20,28=1,31=1,40=2,96=-1/1,2,7;
 99/9=1/99;
 Leave Link    1 at Sat Jan  1 18:25:32 2005, MaxMem=   524288000 cpu:               0.4 elap:               0.1
 (Enter /home/ubuntu/g16/l101.exe)
 ---------------------
 HF_UB3LYP-aug-cc-pVDZ
 ---------------------
 Symbolic Z-matrix:
 Charge =  0 Multiplicity = 1
 F                    -0.74756  -0.5277    0.004 
 H                    -2.04244  -0.5277    0.004 
 
 Add virtual bond connecting atoms H2         and F1         Dist= 2.45D+00.
 ITRead=  0  0
 MicOpt= -1 -1
 NAtoms=      2 NQM=        2 NQMF=       0 NMMI=      0 NMMIF=      0
                NMic=       0 NMicF=      0.
                    Isotopes and Nuclear Properties:
 (Nuclear quadrupole moments (NQMom) in fm**2, nuclear magnetic moments (NMagM)
  in nuclear magnetons)

  Atom         1           2
 IAtWgt=          19           1
 AtmWgt=  18.9984033   1.0078250
 NucSpn=           1           1
 AtZEff=  -0.0000000  -0.0000000
 NQMom=    0.0000000   0.0000000
 NMagM=    2.6288670   2.7928460
 AtZNuc=   9.0000000   1.0000000
 Leave Link  101 at Sat Jan  1 18:25:32 2005, MaxMem=   524288000 cpu:               0.7 elap:               0.1
 (Enter /home/ubuntu/g16/l103.exe)

 GradGradGradGradGradGradGradGradGradGradGradGradGradGradGradGradGradGrad
 Berny optimization.
 Initialization pass.
                           ----------------------------
                           !    Initial Parameters    !
                           ! (Angstroms and Degrees)  !
 --------------------------                            --------------------------
 ! Name  Definition              Value          Derivative Info.                !
 --------------------------------------------------------------------------------
 ! R1    R(1,2)                  1.2949         estimate D2E/DX2                !
 --------------------------------------------------------------------------------
 Trust Radius=3.00D-01 FncErr=1.00D-07 GrdErr=1.00D-06 EigMax=2.50D+02 EigMin=1.00D-04
 Number of steps in this run=    100 maximum allowed number of steps=    100.
 GradGradGradGradGradGradGradGradGradGradGradGradGradGradGradGradGradGrad

 Leave Link  103 at Sat Jan  1 18:25:32 2005, MaxMem=   524288000 cpu:               0.1 elap:               0.0
 (Enter /home/ubuntu/g16/l202.exe)
                          Input orientation:                          
 ---------------------------------------------------------------------
 Center     Atomic      Atomic             Coordinates (Angstroms)
 Number     Number       Type             X           Y           Z
 ---------------------------------------------------------------------
      1          9           0       -0.747560   -0.527700    0.004000
      2          1           0       -2.042440   -0.527700    0.004000
 ---------------------------------------------------------------------
 Stoichiometry    FH
 Framework group  C*V[C*(HF)]
 Deg. of freedom     1
 Full point group                 C*V     NOp   4
 Largest Abelian subgroup         C2V     NOp   4
 Largest concise Abelian subgroup C1      NOp   1
                         Standard orientation:                         
 ---------------------------------------------------------------------
 Center     Atomic      Atomic             Coordinates (Angstroms)
 Number     Number       Type             X           Y           Z
 ---------------------------------------------------------------------
      1          9           0        0.000000    0.000000    0.129488
      2          1           0        0.000000    0.000000   -1.165392
 ---------------------------------------------------------------------
 Rotational constants (GHZ):           0.0000000         314.9351456         314.9351456
 Leave Link  202 at Sat Jan  1 18:25:32 2005, MaxMem=   524288000 cpu:               0.2 elap:               0.0
 (Enter /home/ubuntu/g16/l301.exe)
 Standard basis: Aug-CC-pVDZ (5D, 7F)
 Ernie: Thresh=  0.10000D-02 Tol=  0.10000D-05 Strict=F.
 Ernie:  2 primitive shells out of 32 were deleted.
 There are    18 symmetry adapted cartesian basis functions of A1  symmetry.
 There are     2 symmetry adapted cartesian basis functions of A2  symmetry.
 There are     7 symmetry adapted cartesian basis functions of B1  symmetry.
 There are     7 symmetry adapted cartesian basis functions of B2  symmetry.
 There are    16 symmetry adapted basis functions of A1  symmetry.
 There are     2 symmetry adapted basis functions of A2  symmetry.
 There are     7 symmetry adapted basis functions of B1  symmetry.
 There are     7 symmetry adapted basis functions of B2  symmetry.
    32 basis functions,    54 primitive gaussians,    34 cartesian basis functions
     5 alpha electrons        5 beta electrons
       nuclear repulsion energy         3.6780202785 Hartrees.
 IExCor=  402 DFT=T Ex+Corr=B3LYP ExCW=0 ScaHFX=  0.200000
 ScaDFX=  0.800000  0.720000  1.000000  0.810000 ScalE2=  1.000000  1.000000
 IRadAn=      5 IRanWt=     -1 IRanGd=            0 ICorTp=0 IEmpDi=  4
 NAtoms=    2 NActive=    2 NUniq=    2 SFac= 1.00D+00 NAtFMM=   60 NAOKFM=F Big=F
 Integral buffers will be    131072 words long.
 Raffenetti 2 integral format.
 Two-electron integral symmetry is turned on.
 Leave Link  301 at Sat Jan  1 18:25:32 2005, MaxMem=   524288000 cpu:               0.2 elap:               0.0
 (Enter /home/ubuntu/g16/l302.exe)
 NPDir=0 NMtPBC=     1 NCelOv=     1 NCel=       1 NClECP=     1 NCelD=      1
         NCelK=      1 NCelE2=     1 NClLst=     1 CellRange=     0.0.
 One-electron integrals computed using PRISM.
 One-electron integral symmetry used in STVInt
 NBasis=    32 RedAO= T EigKep=  6.90D-03  NBF=    16     2     7     7
 NBsUse=    32 1.00D-06 EigRej= -1.00D+00 NBFU=    16     2     7     7
 Precomputing XC quadrature grid using
 IXCGrd= 4 IRadAn=           5 IRanWt=          -1 IRanGd=           0 AccXCQ= 0.00D+00.
 Generated NRdTot=       0 NPtTot=           0 NUsed=           0 NTot=          32
 NSgBfM=    34    34    34    34    34 MxSgAt=     2 MxSgA2=     2.
 Leave Link  302 at Sat Jan  1 18:25:32 2005, MaxMem=   524288000 cpu:               0.9 elap:               0.1
 (Enter /home/ubuntu/g16/l303.exe)
 DipDrv:  MaxL=1.
 Leave Link  303 at Sat Jan  1 18:25:32 2005, MaxMem=   524288000 cpu:               0.1 elap:               0.0
 (Enter /home/ubuntu/g16/l401.exe)
 ExpMin= 2.97D-02 ExpMax= 1.47D+04 ExpMxC= 5.03D+02 IAcc=3 IRadAn=         5 AccDes= 0.00D+00
 Harris functional with IExCor=  402 and IRadAn=       5 diagonalized for initial guess.
 HarFok:  IExCor=  402 AccDes= 0.00D+00 IRadAn=         5 IDoV= 1 UseB2=F ITyADJ=14
 ICtDFT=  3500011 ScaDFX=  1.000000  1.000000  1.000000  1.000000
 FoFCou: FMM=F IPFlag=           0 FMFlag=      100000 FMFlg1=           0
         NFxFlg=           0 DoJE=T BraDBF=F KetDBF=T FulRan=T
         wScrn=  0.000000 ICntrl=       500 IOpCl=  0 I1Cent=   200000004 NGrid=           0
         NMat0=    1 NMatS0=      1 NMatT0=    0 NMatD0=    1 NMtDS0=    0 NMtDT0=    0
 Petite list used in FoFCou.
 Harris En= -100.415580690131    
 JPrj=0 DoOrth=F DoCkMO=F.
 Initial guess orbital symmetries:
 Alpha Orbitals:
       Occupied  (SG) (SG) (SG) (PI) (PI)
       Virtual   (SG) (SG) (SG) (PI) (PI) (SG) (PI) (PI) (SG) (SG)
                 (DLTA) (DLTA) (PI) (PI) (SG) (PI) (PI) (SG) (PI)
                 (PI) (SG) (SG) (DLTA) (DLTA) (PI) (PI) (SG)
 Beta  Orbitals:
       Occupied  (SG) (SG) (SG) (PI) (PI)
       Virtual   (SG) (SG) (SG) (PI) (PI) (SG) (PI) (PI) (SG) (SG)
                 (DLTA) (DLTA) (PI) (PI) (SG) (PI) (PI) (SG) (PI)
                 (PI) (SG) (SG) (DLTA) (DLTA) (PI) (PI) (SG)
 The electronic state of the initial guess is 1-SG.
 Initial guess <Sx>= 0.0000 <Sy>= 0.0000 <Sz>= 0.0000 <S**2>=-0.0000 S=-0.0000
 Leave Link  401 at Sat Jan  1 18:25:32 2005, MaxMem=   524288000 cpu:               1.6 elap:               0.2
 (Enter /home/ubuntu/g16/l502.exe)
 Keep R1 and R2 ints in memory in symmetry-blocked form, NReq=6180467.
 FoFCou: FMM=F IPFlag=           0 FMFlag=           0 FMFlg1=           0
         NFxFlg=           0 DoJE=F BraDBF=F KetDBF=F FulRan=T
         wScrn=  0.000000 ICntrl=       600 IOpCl=  0 I1Cent=           0 NGrid=           0
         NMat0=    1 NMatS0=    528 NMatT0=    0 NMatD0=    1 NMtDS0=    0 NMtDT0=    0
 Petite list used in FoFCou.
 UHF open shell SCF:
 Using DIIS extrapolation, IDIIS=  1040.
 NGot=   524288000 LenX=   524205684 LenY=   524204087
 Requested convergence on RMS density matrix=1.00D-08 within 128 cycles.
 Requested convergence on MAX density matrix=1.00D-06.
 Requested convergence on             energy=1.00D-06.
 No special actions if energy rises.

 Cycle   1  Pass 1  IDiag  1:
 E= -100.354007972647    
 DIIS: error= 3.36D-02 at cycle   1 NSaved=   1.
 NSaved= 1 IEnMin= 1 EnMin= -100.354007972647     IErMin= 1 ErrMin= 3.36D-02
 ErrMax= 3.36D-02  0.00D+00 EMaxC= 1.00D-01 BMatC= 1.73D-01 BMatP= 1.73D-01
 IDIUse=3 WtCom= 6.64D-01 WtEn= 3.36D-01
 Coeff-Com:  0.100D+01
 Coeff-En:   0.100D+01
 Coeff:      0.100D+01
 Gap=     0.147 Goal=   None    Shift=    0.000
 Gap=     0.147 Goal=   None    Shift=    0.000
 GapD=    0.147 DampG=1.000 DampE=0.500 DampFc=0.5000 IDamp=-1.
 Damping current iteration by 5.00D-01
 RMSDP=1.25D-02 MaxDP=1.82D-01              OVMax= 3.10D-01

 Cycle   2  Pass 1  IDiag  1:
 E= -100.344841612762     Delta-E=        0.009166359885 Rises=F Damp=T
 DIIS: error= 2.39D-02 at cycle   2 NSaved=   2.
 NSaved= 2 IEnMin= 1 EnMin= -100.354007972647     IErMin= 2 ErrMin= 2.39D-02
 ErrMax= 2.39D-02  0.00D+00 EMaxC= 1.00D-01 BMatC= 9.39D-02 BMatP= 1.73D-01
 IDIUse=3 WtCom= 7.61D-01 WtEn= 2.39D-01
 Coeff-Com:  0.420D+00 0.580D+00
 Coeff-En:   0.566D+00 0.434D+00
 Coeff:      0.455D+00 0.545D+00
 Gap=     0.262 Goal=   None    Shift=    0.000
 Gap=     0.262 Goal=   None    Shift=    0.000
 RMSDP=1.96D-03 MaxDP=2.12D-02 DE= 9.17D-03 OVMax= 1.82D-01

 Cycle   3  Pass 1  IDiag  1:
 E= -100.393083567694     Delta-E=       -0.048241954932 Rises=F Damp=F
 DIIS: error= 5.29D-03 at cycle   3 NSaved=   3.
 NSaved= 3 IEnMin= 3 EnMin= -100.393083567694     IErMin= 3 ErrMin= 5.29D-03
 ErrMax= 5.29D-03  0.00D+00 EMaxC= 1.00D-01 BMatC= 4.86D-03 BMatP= 9.39D-02
 IDIUse=3 WtCom= 9.47D-01 WtEn= 5.29D-02
 Coeff-Com:  0.126D+00-0.340D-01 0.908D+00
 Coeff-En:   0.000D+00 0.000D+00 0.100D+01
 Coeff:      0.120D+00-0.322D-01 0.913D+00
 Gap=     0.287 Goal=   None    Shift=    0.000
 Gap=     0.287 Goal=   None    Shift=    0.000
 RMSDP=6.37D-04 MaxDP=8.27D-03 DE=-4.82D-02 OVMax= 1.52D-02

 Cycle   4  Pass 1  IDiag  1:
 E= -100.394024746568     Delta-E=       -0.000941178874 Rises=F Damp=F
 DIIS: error= 4.43D-04 at cycle   4 NSaved=   4.
 NSaved= 4 IEnMin= 4 EnMin= -100.394024746568     IErMin= 4 ErrMin= 4.43D-04
 ErrMax= 4.43D-04  0.00D+00 EMaxC= 1.00D-01 BMatC= 2.47D-05 BMatP= 4.86D-03
 IDIUse=3 WtCom= 9.96D-01 WtEn= 4.43D-03
 Coeff-Com:  0.130D-01-0.284D-01 0.207D+00 0.809D+00
 Coeff-En:   0.000D+00 0.000D+00 0.000D+00 0.100D+01
 Coeff:      0.129D-01-0.283D-01 0.206D+00 0.809D+00
 Gap=     0.287 Goal=   None    Shift=    0.000
 Gap=     0.287 Goal=   None    Shift=    0.000
 RMSDP=4.85D-05 MaxDP=5.10D-04 DE=-9.41D-04 OVMax= 1.03D-03

 Cycle   5  Pass 1  IDiag  1:
 E= -100.394028389535     Delta-E=       -0.000003642967 Rises=F Damp=F
 DIIS: error= 9.94D-05 at cycle   5 NSaved=   5.
 NSaved= 5 IEnMin= 5 EnMin= -100.394028389535     IErMin= 5 ErrMin= 9.94D-05
 ErrMax= 9.94D-05  0.00D+00 EMaxC= 1.00D-01 BMatC= 1.72D-06 BMatP= 2.47D-05
 IDIUse=1 WtCom= 1.00D+00 WtEn= 0.00D+00
 Coeff-Com:  0.157D-02-0.367D-02 0.733D-02 0.345D-01 0.960D+00
 Coeff:      0.157D-02-0.367D-02 0.733D-02 0.345D-01 0.960D+00
 Gap=     0.287 Goal=   None    Shift=    0.000
 Gap=     0.287 Goal=   None    Shift=    0.000
 RMSDP=9.45D-06 MaxDP=1.01D-04 DE=-3.64D-06 OVMax= 1.59D-04

 Cycle   6  Pass 1  IDiag  1:
 E= -100.394028695514     Delta-E=       -0.000000305979 Rises=F Damp=F
 DIIS: error= 1.40D-05 at cycle   6 NSaved=   6.
 NSaved= 6 IEnMin= 6 EnMin= -100.394028695514     IErMin= 6 ErrMin= 1.40D-05
 ErrMax= 1.40D-05  0.00D+00 EMaxC= 1.00D-01 BMatC= 3.21D-08 BMatP= 1.72D-06
 IDIUse=1 WtCom= 1.00D+00 WtEn= 0.00D+00
 Coeff-Com:  0.460D-04 0.174D-03-0.209D-02-0.345D-02-0.625D-01 0.107D+01
 Coeff:      0.460D-04 0.174D-03-0.209D-02-0.345D-02-0.625D-01 0.107D+01
 Gap=     0.287 Goal=   None    Shift=    0.000
 Gap=     0.287 Goal=   None    Shift=    0.000
 RMSDP=2.02D-06 MaxDP=2.37D-05 DE=-3.06D-07 OVMax= 4.41D-05

 Cycle   7  Pass 1  IDiag  1:
 E= -100.394028702229     Delta-E=       -0.000000006715 Rises=F Damp=F
 DIIS: error= 1.70D-06 at cycle   7 NSaved=   7.
 NSaved= 7 IEnMin= 7 EnMin= -100.394028702229     IErMin= 7 ErrMin= 1.70D-06
 ErrMax= 1.70D-06  0.00D+00 EMaxC= 1.00D-01 BMatC= 4.18D-10 BMatP= 3.21D-08
 IDIUse=1 WtCom= 1.00D+00 WtEn= 0.00D+00
 Coeff-Com: -0.249D-04 0.435D-04-0.113D-03 0.271D-03-0.106D-01 0.962D-01
 Coeff-Com:  0.914D+00
 Coeff:     -0.249D-04 0.435D-04-0.113D-03 0.271D-03-0.106D-01 0.962D-01
 Coeff:      0.914D+00
 Gap=     0.287 Goal=   None    Shift=    0.000
 Gap=     0.287 Goal=   None    Shift=    0.000
 RMSDP=1.84D-07 MaxDP=2.63D-06 DE=-6.72D-09 OVMax= 4.87D-06

 Cycle   8  Pass 1  IDiag  1:
 E= -100.394028702318     Delta-E=       -0.000000000089 Rises=F Damp=F
 DIIS: error= 1.11D-07 at cycle   8 NSaved=   8.
 NSaved= 8 IEnMin= 8 EnMin= -100.394028702318     IErMin= 8 ErrMin= 1.11D-07
 ErrMax= 1.11D-07  0.00D+00 EMaxC= 1.00D-01 BMatC= 2.05D-12 BMatP= 4.18D-10
 IDIUse=1 WtCom= 1.00D+00 WtEn= 0.00D+00
 Coeff-Com: -0.157D-05 0.210D-05-0.352D-05-0.340D-04 0.106D-03-0.214D-02
 Coeff-Com: -0.336D-01 0.104D+01
 Coeff:     -0.157D-05 0.210D-05-0.352D-05-0.340D-04 0.106D-03-0.214D-02
 Coeff:     -0.336D-01 0.104D+01
 Gap=     0.287 Goal=   None    Shift=    0.000
 Gap=     0.287 Goal=   None    Shift=    0.000
 RMSDP=1.27D-08 MaxDP=1.88D-07 DE=-8.88D-11 OVMax= 3.18D-07

 Cycle   9  Pass 1  IDiag  1:
 E= -100.394028702319     Delta-E=       -0.000000000000 Rises=F Damp=F
 DIIS: error= 7.53D-09 at cycle   9 NSaved=   9.
 NSaved= 9 IEnMin= 9 EnMin= -100.394028702319     IErMin= 9 ErrMin= 7.53D-09
 ErrMax= 7.53D-09  0.00D+00 EMaxC= 1.00D-01 BMatC= 7.73D-15 BMatP= 2.05D-12
 IDIUse=1 WtCom= 1.00D+00 WtEn= 0.00D+00
 Coeff-Com: -0.303D-07 0.266D-07-0.134D-06 0.190D-05-0.415D-04 0.504D-03
 Coeff-Com:  0.297D-02-0.757D-01 0.107D+01
 Coeff:     -0.303D-07 0.266D-07-0.134D-06 0.190D-05-0.415D-04 0.504D-03
 Coeff:      0.297D-02-0.757D-01 0.107D+01
 Gap=     0.287 Goal=   None    Shift=    0.000
 Gap=     0.287 Goal=   None    Shift=    0.000
 RMSDP=8.82D-10 MaxDP=1.22D-08 DE=-3.84D-13 OVMax= 2.07D-08

 SCF Done:  E(UB3LYP) =  -100.394028702     A.U. after    9 cycles
            NFock=  9  Conv=0.88D-09     -V/T= 2.0089
 <Sx>= 0.0000 <Sy>= 0.0000 <Sz>= 0.0000 <S**2>=-0.0000 S=-0.0000
 <L.S>= 0.000000000000E+00
 KE= 9.951043662701D+01 PE=-2.472013343261D+02 EE= 4.361884871822D+01
 Annihilation of the first spin contaminant:
 S**2 before annihilation    -0.0000,   after    -0.0000
 Leave Link  502 at Sat Jan  1 18:25:33 2005, MaxMem=   524288000 cpu:               2.3 elap:               0.3
 (Enter /home/ubuntu/g16/l601.exe)
 Copying SCF densities to generalized density rwf, IOpCl= 1 IROHF=0.

 **********************************************************************

            Population analysis using the SCF density.

 **********************************************************************

 Orbital symmetries:
 Alpha Orbitals:
       Occupied  (SG) (SG) (SG) (PI) (PI)
       Virtual   (SG) (SG) (PI) (PI) (SG) (SG) (PI) (PI) (SG) (SG)
                 (DLTA) (DLTA) (PI) (PI) (SG) (PI) (PI) (SG) (PI)
                 (PI) (SG) (SG) (DLTA) (DLTA) (PI) (PI) (SG)
 Beta  Orbitals:
       Occupied  (SG) (SG) (SG) (PI) (PI)
       Virtual   (SG) (SG) (PI) (PI) (SG) (SG) (PI) (PI) (SG) (SG)
                 (DLTA) (DLTA) (PI) (PI) (SG) (PI) (PI) (SG) (PI)
                 (PI) (SG) (SG) (DLTA) (DLTA) (PI) (PI) (SG)
 The electronic state is 1-SG.
     Natural Orbital Coefficients:
                           1         2         3         4         5
     Eigenvalues --     2.00000   2.00000   2.00000   2.00000   2.00000
   1 1   F  1S          0.96627   0.28324   0.00000   0.00000  -0.18409
   2        2S         -0.19146   0.42997   0.00000   0.00000   0.18804
   3        3S         -0.24260   0.46059   0.00000   0.00000   0.18550
   4        4S         -0.03205   0.06186   0.00000   0.00000   0.01114
   5        5PX         0.00000   0.00000   0.67133   0.00000   0.00000
   6        5PY         0.00000   0.00000   0.00000   0.67133   0.00000
   7        5PZ        -0.16494   0.20470   0.00000   0.00000  -0.48416
   8        6PX         0.00000   0.00000   0.42636   0.00000   0.00000
   9        6PY         0.00000   0.00000   0.00000   0.42636   0.00000
  10        6PZ        -0.09467   0.11956   0.00000   0.00000  -0.29354
  11        7PX         0.00000   0.00000   0.09144   0.00000   0.00000
  12        7PY         0.00000   0.00000   0.00000   0.09144   0.00000
  13        7PZ        -0.01260   0.01357   0.00000   0.00000  -0.05214
  14        8D 0        0.00137  -0.00019   0.00000   0.00000   0.00978
  15        8D+1        0.00000   0.00000  -0.00414   0.00000   0.00000
  16        8D-1        0.00000   0.00000   0.00000  -0.00414   0.00000
  17        8D+2       -0.00000  -0.00000   0.00000   0.00000  -0.00000
  18        8D-2        0.00000   0.00000   0.00000   0.00000   0.00000
  19        9D 0       -0.00084   0.00121   0.00000   0.00000   0.00883
  20        9D+1        0.00000   0.00000  -0.01348   0.00000   0.00000
  21        9D-1        0.00000   0.00000   0.00000  -0.01348   0.00000
  22        9D+2       -0.00000  -0.00000   0.00000   0.00000   0.00000
  23        9D-2        0.00000   0.00000   0.00000   0.00000   0.00000
  24 2   H  1S          0.08262  -0.08673   0.00000   0.00000   0.31469
  25        2S          0.05182  -0.07381   0.00000   0.00000   0.08229
  26        3S          0.00069  -0.00234   0.00000   0.00000   0.00001
  27        4PX         0.00000   0.00000   0.01394   0.00000   0.00000
  28        4PY         0.00000   0.00000   0.00000   0.01394   0.00000
  29        4PZ         0.00511  -0.00150   0.00000   0.00000   0.02757
  30        5PX         0.00000   0.00000   0.02241   0.00000   0.00000
  31        5PY         0.00000   0.00000   0.00000   0.02241   0.00000
  32        5PZ         0.00234  -0.00481   0.00000   0.00000  -0.01758
                           6         7         8         9        10
     Eigenvalues --     0.00000   0.00000   0.00000   0.00000   0.00000
   1 1   F  1S         -0.03726   0.00000   0.00000  -0.04296   0.00000
   2        2S         -0.76177   0.00000   0.00000   0.52539   0.00000
   3        3S          1.73993   0.00000   0.00000  -0.29270   0.00000
   4        4S         -0.53337   0.00000   0.00000   0.02999   0.00000
   5        5PX         0.00000  -0.28073   0.32445   0.00000   0.00000
   6        5PY         0.00000   0.00000   0.00000   0.00000  -0.57716
   7        5PZ         0.65111   0.00000   0.00000   0.22824   0.00000
   8        6PX         0.00000   0.78813  -0.74384   0.00000   0.00000
   9        6PY         0.00000   0.00000   0.00000   0.00000   1.03670
  10        6PZ        -1.24651   0.00000   0.00000  -0.99042   0.00000
  11        7PX         0.00000  -0.10076   1.45885   0.00000   0.00000
  12        7PY         0.00000   0.00000   0.00000   0.00000  -0.23917
  13        7PZ         0.43628   0.00000   0.00000   1.03282   0.00000
  14        8D 0       -0.01455   0.00000   0.00000   0.08401   0.00000
  15        8D+1        0.00000   0.34671   0.17710   0.00000   0.00000
  16        8D-1        0.00000   0.00000   0.00000   0.00000   0.48054
  17        8D+2       -0.00126   0.00000   0.00000   0.00010   0.00000
  18        8D-2        0.00000   0.00000   0.00000   0.00000   0.00000
  19        9D 0        0.58842   0.00000   0.00000  -0.38106   0.00000
  20        9D+1        0.00000  -0.72803  -0.28046   0.00000   0.00000
  21        9D-1        0.00000   0.00000   0.00000   0.00000  -0.83441
  22        9D+2        0.00134   0.00000   0.00000   0.00005   0.00000
  23        9D-2        0.00000   0.00000   0.00000   0.00000   0.00000
  24 2   H  1S         -0.56074   0.00000   0.00000  -0.01199   0.00000
  25        2S          0.02026   0.00000   0.00000  -0.10856   0.00000
  26        3S          0.27724   0.00000   0.00000  -0.00950   0.00000
  27        4PX         0.00000  -0.22449   0.48447   0.00000   0.00000
  28        4PY         0.00000   0.00000   0.00000   0.00000  -0.15666
  29        4PZ        -0.65753   0.00000   0.00000   0.15115   0.00000
  30        5PX         0.00000  -0.95769  -1.15235   0.00000   0.00000
  31        5PY         0.00000   0.00000   0.00000   0.00000  -0.63979
  32        5PZ        -0.82109   0.00000   0.00000  -0.39533   0.00000
                          11        12        13        14        15
     Eigenvalues --     0.00000   0.00000   0.00000   0.00000   0.00000
   1 1   F  1S          0.05539   0.00000   0.00000   0.05599   0.00000
   2        2S          0.26516   0.00000   0.00000  -0.95955   0.00000
   3        3S         -0.83665   0.00000   0.00000   1.01726   0.00000
   4        4S          0.26716   0.00000   0.00000  -0.18397   0.00000
   5        5PX         0.00000   0.00000  -0.07237   0.00000  -0.21439
   6        5PY         0.00000  -0.34038   0.00000   0.00000   0.00000
   7        5PZ         0.22697   0.00000   0.00000   0.27399   0.00000
   8        6PX         0.00000   0.00000   0.12887   0.00000   0.18971
   9        6PY         0.00000   0.00163   0.00000   0.00000   0.00000
  10        6PZ         0.43966   0.00000   0.00000  -0.07741   0.00000
  11        7PX         0.00000   0.00000  -0.02542   0.00000  -0.25174
  12        7PY         0.00000   0.23243   0.00000   0.00000   0.00000
  13        7PZ         0.24667   0.00000   0.00000  -0.10050   0.00000
  14        8D 0        0.37721   0.00000   0.00000  -0.12340   0.00000
  15        8D+1        0.00000   0.00000   0.77335   0.00000   0.54317
  16        8D-1        0.00000  -0.06445   0.00000   0.00000   0.00000
  17        8D+2        0.00065   0.00000   0.00000   0.00000   0.00000
  18        8D-2        0.00000   0.00000   0.00000   0.00000   0.00000
  19        9D 0       -0.98639   0.00000   0.00000  -0.02127   0.00000
  20        9D+1        0.00000   0.00000   0.34138   0.00000  -0.56359
  21        9D-1        0.00000  -0.33395   0.00000   0.00000   0.00000
  22        9D+2       -0.00051   0.00000   0.00000   0.00050   0.00000
  23        9D-2        0.00000   0.00000   0.00000   0.00000   0.00000
  24 2   H  1S          0.84174   0.00000   0.00000  -0.16054   0.00000
  25        2S          0.02645   0.00000   0.00000  -0.00102   0.00000
  26        3S          0.57354   0.00000   0.00000  -0.16014   0.00000
  27        4PX         0.00000   0.00000   0.02817   0.00000   0.62523
  28        4PY         0.00000   0.39116   0.00000   0.00000   0.00000
  29        4PZ         0.73186   0.00000   0.00000   0.81732   0.00000
  30        5PX         0.00000   0.00000  -0.04395   0.00000   0.10437
  31        5PY         0.00000   0.37557   0.00000   0.00000   0.00000
  32        5PZ        -0.26245   0.00000   0.00000  -0.20112   0.00000
                          16        17        18        19        20
     Eigenvalues --     0.00000   0.00000   0.00000   0.00000  -0.00000
   1 1   F  1S         -0.03604   0.00311   0.00000   0.00000   0.00000
   2        2S          0.28164  -0.02914   0.00000   0.00000   0.00000
   3        3S         -0.11369   0.01745   0.00000   0.00000   0.00000
   4        4S         -0.59450   0.05588   0.00000   0.00000   0.00000
   5        5PX         0.00000   0.00000   0.00000   0.00000   0.00000
   6        5PY         0.00000   0.00000  -0.10422   0.00000   0.00000
   7        5PZ         0.00627  -0.00255   0.00000   0.00000   0.00000
   8        6PX         0.00000   0.00000   0.00000   0.00000   0.00000
   9        6PY         0.00000   0.00000   0.30570   0.00000   0.00000
  10        6PZ        -0.22586   0.01818   0.00000   0.00000   0.00000
  11        7PX         0.00000   0.00000   0.00000   0.00000   0.00000
  12        7PY         0.00000   0.00000  -0.18555   0.00000   0.00000
  13        7PZ        -0.38071   0.03332   0.00000   0.00000   0.00000
  14        8D 0       -0.41085   0.04950   0.00000   0.00000   0.00000
  15        8D+1        0.00000   0.00000   0.00000   0.00000   0.00000
  16        8D-1        0.00000   0.00000  -0.93554   0.00000   0.00000
  17        8D+2        0.10026   0.87947   0.00000   0.00000   0.00000
  18        8D-2        0.00000   0.00000   0.00000  -0.00000   1.17006
  19        9D 0        0.66965  -0.06505   0.00000   0.00000   0.00000
  20        9D+1        0.00000   0.00000   0.00000   0.00000   0.00000
  21        9D-1        0.00000   0.00000   0.48348   0.00000   0.00000
  22        9D+2       -0.09704  -1.10930   0.00000   0.00000   0.00000
  23        9D-2        0.00000   0.00000   0.00000   1.00000  -0.60749
  24 2   H  1S         -0.40219   0.02802   0.00000   0.00000   0.00000
  25        2S         -0.72069   0.06918   0.00000   0.00000   0.00000
  26        3S          1.31145  -0.12392   0.00000   0.00000   0.00000
  27        4PX         0.00000   0.00000   0.00000   0.00000   0.00000
  28        4PY         0.00000   0.00000   0.57511   0.00000   0.00000
  29        4PZ        -0.12067   0.00968   0.00000   0.00000   0.00000
  30        5PX         0.00000   0.00000   0.00000   0.00000   0.00000
  31        5PY         0.00000   0.00000  -0.49486   0.00000   0.00000
  32        5PZ         0.50018  -0.05039   0.00000   0.00000   0.00000
                          21        22        23        24        25
     Eigenvalues --    -0.00000  -0.00000  -0.00000  -0.00000  -0.00000
   1 1   F  1S          0.00065   0.00000   0.00000   0.01746   0.00000
   2        2S         -0.00651   0.00000   0.00000   0.06824   0.00000
   3        3S          0.00402   0.00000   0.00000  -0.19026   0.00000
   4        4S          0.01332   0.00000   0.00000  -0.00750   0.00000
   5        5PX         0.00000  -0.23706   0.00000   0.00000   0.00000
   6        5PY         0.00000   0.00000  -0.16604   0.00000   0.58884
   7        5PZ        -0.00092   0.00000   0.00000   0.05209   0.00000
   8        6PX         0.00000   0.41752   0.00000   0.00000   0.00000
   9        6PY         0.00000   0.00000   0.22358   0.00000  -0.48001
  10        6PZ         0.00376   0.00000   0.00000   0.28204   0.00000
  11        7PX         0.00000  -0.18167   0.00000   0.00000   0.00000
  12        7PY         0.00000   0.00000  -0.19606   0.00000  -0.53856
  13        7PZ         0.00672   0.00000   0.00000   0.29325   0.00000
  14        8D 0        0.01367   0.00000   0.00000  -0.94479   0.00000
  15        8D+1        0.00000  -0.60110   0.00000   0.00000   0.00000
  16        8D-1        0.00000   0.00000   0.43068   0.00000   0.25387
  17        8D+2        0.76505   0.00000   0.00000   0.01427   0.00000
  18        8D-2        0.00000   0.00000   0.00000   0.00000   0.00000
  19        9D 0       -0.01582   0.00000   0.00000   0.18747   0.00000
  20        9D+1        0.00000   0.81320   0.00000   0.00000   0.00000
  21        9D-1        0.00000   0.00000   0.50681   0.00000  -0.49495
  22        9D+2        0.35907   0.00000   0.00000  -0.01123   0.00000
  23        9D-2        0.00000   0.00000   0.00000   0.00000   0.00000
  24 2   H  1S          0.00468   0.00000   0.00000   0.68442   0.00000
  25        2S          0.01654   0.00000   0.00000  -0.03063   0.00000
  26        3S         -0.02918   0.00000   0.00000  -0.04506   0.00000
  27        4PX         0.00000   0.84079   0.00000   0.00000   0.00000
  28        4PY         0.00000   0.00000   0.81207   0.00000   0.28320
  29        4PZ         0.00137   0.00000   0.00000   0.21575   0.00000
  30        5PX         0.00000  -0.50803   0.00000   0.00000   0.00000
  31        5PY         0.00000   0.00000  -0.18254   0.00000   0.12810
  32        5PZ        -0.01144   0.00000   0.00000  -0.10964   0.00000
                          26        27        28        29        30
     Eigenvalues --    -0.00000  -0.00000  -0.00000  -0.00000  -0.00000
   1 1   F  1S          0.02893   0.00000   0.01004   0.00966  -0.02067
   2        2S         -0.57797   0.00000   0.16760   0.36700   1.10195
   3        3S          0.45638   0.00000  -0.47267  -0.56345  -1.53520
   4        4S         -0.47004   0.00000  -7.56543   0.16475   0.21090
   5        5PX         0.00000   0.80026   0.00000   0.00000   0.00000
   6        5PY         0.00000   0.00000   0.00000   0.00000   0.00000
   7        5PZ         0.36169   0.00000  -0.26725  -0.24148   0.51751
   8        6PX         0.00000  -0.67201   0.00000   0.00000   0.00000
   9        6PY         0.00000   0.00000   0.00000   0.00000   0.00000
  10        6PZ        -0.60748   0.00000   1.44716   0.51428   0.20092
  11        7PX         0.00000  -0.45947   0.00000   0.00000   0.00000
  12        7PY         0.00000   0.00000   0.00000   0.00000   0.00000
  13        7PZ         0.27627   0.00000   3.28796   0.37933  -0.51402
  14        8D 0        0.16586   0.00000   0.16622   0.26272   0.08397
  15        8D+1        0.00000   0.07603   0.00000   0.00000   0.00000
  16        8D-1        0.00000   0.00000   0.00000   0.00000   0.00000
  17        8D+2        0.00299   0.00000  -0.00002  -0.00036   0.00180
  18        8D-2        0.00000   0.00000   0.00000   0.00000   0.00000
  19        9D 0        0.32003   0.00000  -0.61688   0.35284  -0.14200
  20        9D+1        0.00000   0.03341   0.00000   0.00000   0.00000
  21        9D-1        0.00000   0.00000   0.00000   0.00000   0.00000
  22        9D+2       -0.00259   0.00000   0.00002   0.00085  -0.00181
  23        9D-2        0.00000   0.00000   0.00000   0.00000   0.00000
  24 2   H  1S          0.30432   0.00000  -0.31933   0.43785   0.46914
  25        2S         -0.42685   0.00000   7.91008   0.00755   0.14043
  26        3S          0.49890   0.00000   0.73068  -0.01960  -0.44116
  27        4PX         0.00000   0.22403   0.00000   0.00000   0.00000
  28        4PY         0.00000   0.00000   0.00000   0.00000   0.00000
  29        4PZ        -0.77635   0.00000   0.34600   0.46794   0.43538
  30        5PX         0.00000  -0.00206   0.00000   0.00000   0.00000
  31        5PY         0.00000   0.00000   0.00000   0.00000   0.00000
  32        5PZ         1.01277   0.00000   3.26323  -0.23950   0.30957
                          31        32
     Eigenvalues --    -0.00000  -0.00000
   1 1   F  1S         -0.02202   0.00000
   2        2S         -0.24896   0.00000
   3        3S          0.92707   0.00000
   4        4S         -1.12994   0.00000
   5        5PX         0.00000   0.00000
   6        5PY         0.00000   0.31266
   7        5PZ        -0.30406   0.00000
   8        6PX         0.00000   0.00000
   9        6PY         0.00000  -0.63590
  10        6PZ         0.85643   0.00000
  11        7PX         0.00000   0.00000
  12        7PY         0.00000   1.40442
  13        7PZ        -0.32449   0.00000
  14        8D 0        0.34574   0.00000
  15        8D+1        0.00000   0.00000
  16        8D-1        0.00000   0.22699
  17        8D+2       -0.00039   0.00000
  18        8D-2        0.00000   0.00000
  19        9D 0       -0.86470   0.00000
  20        9D+1        0.00000   0.00000
  21        9D-1        0.00000  -0.40238
  22        9D+2        0.00043   0.00000
  23        9D-2        0.00000   0.00000
  24 2   H  1S          1.36462   0.00000
  25        2S         -1.07591   0.00000
  26        3S          0.63410   0.00000
  27        4PX         0.00000   0.00000
  28        4PY         0.00000   0.43124
  29        4PZ         0.39427   0.00000
  30        5PX         0.00000   0.00000
  31        5PY         0.00000  -1.29267
  32        5PZ        -0.17270   0.00000
          Condensed to atoms (all electrons):
               1          2
     1  F    9.248307   0.194335
     2  H    0.194335   0.363023
          Atomic-Atomic Spin Densities.
               1          2
     1  F   -0.000000   0.000000
     2  H    0.000000  -0.000000
 Mulliken charges and spin densities:
               1          2
     1  F   -0.442642   0.000000
     2  H    0.442642  -0.000000
 Sum of Mulliken charges =  -0.00000  -0.00000
 Mulliken charges and spin densities with hydrogens summed into heavy atoms:
               1          2
     1  F   -0.000000  -0.000000

 Bonding Mulliken population analysis:
          Bonding Condensed to atoms (all electrons):
               1          2
     1  F    0.000000   0.194335
     2  H    0.194335   0.000000
          Bonding Atomic-Atomic Spin Densities.
               1          2
     1  F    0.000000   0.000000
     2  H    0.000000   0.000000
 Bonding Mulliken charges and spin densities:
               1          2
     1  F    8.805665   0.000000
     2  H    0.805665   0.000000
 Sum of Bonding Mulliken charges =   9.61133   0.00000
 Bonding Mulliken charges and spin densities with hydrogens summed into heavy atoms:
               1          2
     1  F    9.611330   0.000000
 Electronic spatial extent (au):  <R**2>=             16.6115
 Charge=              0.0000 electrons
 Dipole moment (field-independent basis, Debye):
    X=             -0.0000    Y=              0.0000    Z=             -2.4057  Tot=              2.4057
 Quadrupole moment (field-independent basis, Debye-Ang):
   XX=             -6.2703   YY=             -6.2703   ZZ=             -2.5541
   XY=             -0.0000   XZ=              0.0000   YZ=             -0.0000
 Traceless Quadrupole moment (field-independent basis, Debye-Ang):
   XX=             -1.2388   YY=             -1.2388   ZZ=              2.4775
   XY=             -0.0000   XZ=              0.0000   YZ=             -0.0000
 Octapole moment (field-independent basis, Debye-Ang**2):
  XXX=             -0.0000  YYY=              0.0000  ZZZ=             -3.8057  XYY=             -0.0000
  XXY=              0.0000  XXZ=              0.0437  XZZ=             -0.0000  YZZ=              0.0000
  YYZ=              0.0437  XYZ=              0.0000
 Hexadecapole moment (field-independent basis, Debye-Ang**3):
 XXXX=             -5.1342 YYYY=             -5.1342 ZZZZ=             -3.7795 XXXY=              0.0000
 XXXZ=             -0.0000 YYYX=              0.0000 YYYZ=              0.0000 ZZZX=              0.0000
 ZZZY=             -0.0000 XXYY=             -1.7114 XXZZ=             -2.3718 YYZZ=             -2.3718
 XXYZ=              0.0000 YYXZ=             -0.0000 ZZXY=              0.0000
 N-N= 3.678020278543D+00 E-N=-2.472013340139D+02  KE= 9.951043662701D+01
 Symmetry A1   KE= 8.696831166640D+01
 Symmetry A2   KE= 4.987422293547D-53
 Symmetry B1   KE= 6.271062480309D+00
 Symmetry B2   KE= 6.271062480308D+00
 Symmetry A1   SP=-8.352026190138D-15
 Symmetry A2   SP= 3.071072840854D-53
 Symmetry B1   SP= 4.602703893290D-16
 Symmetry B2   SP= 1.201342542202D-15

 Atomic contributions to Alpha molecular orbitals:
 Alpha occ 1 OE=-24.712 is F1-s=0.9998
 Alpha occ 2 OE=-1.140 is F1-s=0.9933
 Alpha occ 3 OE=-0.483 is F1-p=0.7248 H2-s=0.2512
 Alpha occ 4 OE=-0.396 is F1-p=0.9896
 Alpha occ 5 OE=-0.396 is F1-p=0.9896
 Alpha vir 6 OE=-0.110 is H2-s=0.8026 F1-p=0.1644
 Alpha vir 7 OE=0.042 is H2-s=1.0415 F1-s=-0.1154
 Alpha vir 8 OE=0.151 is F1-p=0.7853 H2-p=0.2146
 Alpha vir 9 OE=0.151 is F1-p=0.7853 H2-p=0.2146
 Alpha vir 10 OE=0.156 is F1-p=1.1769 F1-s=-0.2737 H2-p=0.1791
 Alpha vir 11 OE=0.252 is F1-s=1.5447 H2-s=-0.6337 F1-p=0.3117 H2-p=-0.2131
 Alpha vir 12 OE=0.258 is H2-p=0.7757 F1-p=0.2265
 Alpha vir 13 OE=0.258 is H2-p=0.7757 F1-p=0.2265
 Alpha vir 14 OE=0.371 is H2-p=0.9001 F1-s=0.3322 H2-s=-0.1866
 Alpha vir 15 OE=0.715 is H2-s=1.8511 F1-p=-0.5668 F1-s=-0.4862 H2-p=0.1473
 Alpha vir 16 OE=1.141 is F1-d=1.0000
 Alpha vir 17 OE=1.141 is F1-d=1.0000
 Alpha vir 18 OE=1.168 is F1-d=0.7686 H2-p=0.1868
 Alpha vir 19 OE=1.168 is F1-d=0.7686 H2-p=0.1868
 Alpha vir 20 OE=1.298 is F1-d=0.6654 F1-p=0.2419
 Alpha vir 21 OE=1.338 is F1-p=0.8699
 Alpha vir 22 OE=1.338 is F1-p=0.8699
 Alpha vir 23 OE=1.578 is F1-p=0.6135 H2-p=0.4106
 Alpha vir 24 OE=1.692 is H2-p=0.7802 F1-d=0.1358
 Alpha vir 25 OE=1.692 is H2-p=0.7802 F1-d=0.1358
 Alpha vir 26 OE=1.842 is F1-s=0.4581 H2-p=0.2191 F1-p=0.1428 F1-d=0.1362
 Alpha vir 27 OE=2.746 is F1-s=0.5641 H2-p=0.2102 F1-p=0.1835
 Alpha vir 28 OE=4.424 is F1-d=1.0000
 Alpha vir 29 OE=4.424 is F1-d=1.0000
 Alpha vir 30 OE=4.488 is F1-d=1.0024
 Alpha vir 31 OE=4.488 is F1-d=1.0024
 Alpha vir 32 OE=4.582 is F1-d=1.0060

 Atomic contributions to Beta  molecular orbitals:
 Beta  occ 1 OE=-24.712 is F1-s=0.9998
 Beta  occ 2 OE=-1.140 is F1-s=0.9933
 Beta  occ 3 OE=-0.483 is F1-p=0.7248 H2-s=0.2512
 Beta  occ 4 OE=-0.396 is F1-p=0.9896
 Beta  occ 5 OE=-0.396 is F1-p=0.9896
 Beta  vir 6 OE=-0.110 is H2-s=0.8026 F1-p=0.1644
 Beta  vir 7 OE=0.042 is H2-s=1.0415 F1-s=-0.1154
 Beta  vir 8 OE=0.151 is F1-p=0.7853 H2-p=0.2146
 Beta  vir 9 OE=0.151 is F1-p=0.7853 H2-p=0.2146
 Beta  vir 10 OE=0.156 is F1-p=1.1769 F1-s=-0.2737 H2-p=0.1791
 Beta  vir 11 OE=0.252 is F1-s=1.5447 H2-s=-0.6337 F1-p=0.3117 H2-p=-0.2131
 Beta  vir 12 OE=0.258 is H2-p=0.7757 F1-p=0.2265
 Beta  vir 13 OE=0.258 is H2-p=0.7757 F1-p=0.2265
 Beta  vir 14 OE=0.371 is H2-p=0.9001 F1-s=0.3322 H2-s=-0.1866
 Beta  vir 15 OE=0.715 is H2-s=1.8511 F1-p=-0.5668 F1-s=-0.4862 H2-p=0.1473
 Beta  vir 16 OE=1.141 is F1-d=1.0000
 Beta  vir 17 OE=1.141 is F1-d=1.0000
 Beta  vir 18 OE=1.168 is F1-d=0.7686 H2-p=0.1868
 Beta  vir 19 OE=1.168 is F1-d=0.7686 H2-p=0.1868
 Beta  vir 20 OE=1.298 is F1-d=0.6654 F1-p=0.2419
 Beta  vir 21 OE=1.338 is F1-p=0.8699
 Beta  vir 22 OE=1.338 is F1-p=0.8699
 Beta  vir 23 OE=1.578 is F1-p=0.6135 H2-p=0.4106
 Beta  vir 24 OE=1.692 is H2-p=0.7802 F1-d=0.1358
 Beta  vir 25 OE=1.692 is H2-p=0.7802 F1-d=0.1358
 Beta  vir 26 OE=1.842 is F1-s=0.4581 H2-p=0.2191 F1-p=0.1428 F1-d=0.1362
 Beta  vir 27 OE=2.746 is F1-s=0.5641 H2-p=0.2102 F1-p=0.1835
 Beta  vir 28 OE=4.424 is F1-d=1.0000
 Beta  vir 29 OE=4.424 is F1-d=1.0000
 Beta  vir 30 OE=4.488 is F1-d=1.0024
 Beta  vir 31 OE=4.488 is F1-d=1.0024
 Beta  vir 32 OE=4.582 is F1-d=1.0060
 
                          Isotropic Fermi Contact Couplings
        Atom                 a.u.       MegaHertz       Gauss      10(-4) cm-1
     1  F(19)             -0.00000      -0.00000      -0.00000      -0.00000
     2  H(1)              -0.00000      -0.00000      -0.00000      -0.00000
 --------------------------------------------------------
       Center         ----  Spin Dipole Couplings  ----
                      3XX-RR        3YY-RR        3ZZ-RR
 --------------------------------------------------------
     1   Atom        0.000000      0.000000      0.000000
     2   Atom        0.000000      0.000000      0.000000
 --------------------------------------------------------
                        XY            XZ            YZ
 --------------------------------------------------------
     1   Atom        0.000000      0.000000      0.000000
     2   Atom        0.000000      0.000000      0.000000
 --------------------------------------------------------


 ---------------------------------------------------------------------------------
              Anisotropic Spin Dipole Couplings in Principal Axis System
 ---------------------------------------------------------------------------------

       Atom             a.u.   MegaHertz   Gauss  10(-4) cm-1        Axes

              Baa     0.0000     0.000     0.000     0.000  1.0000  0.0000  0.0000
     1 F(19)  Bbb     0.0000     0.000     0.000     0.000 -0.0000  1.0000  0.0000
              Bcc     0.0000     0.000     0.000     0.000  0.0000  0.0000  1.0000
 
              Baa     0.0000     0.000     0.000     0.000  1.0000  0.0000  0.0000
     2 H(1)   Bbb     0.0000     0.000     0.000     0.000 -0.0000  1.0000  0.0000
              Bcc     0.0000     0.000     0.000     0.000  0.0000  0.0000  1.0000
 

 ---------------------------------------------------------------------------------

 No NMR shielding tensors so no spin-rotation constants.
 Leave Link  601 at Sat Jan  1 18:25:33 2005, MaxMem=   524288000 cpu:               1.2 elap:               0.2
 (Enter /home/ubuntu/g16/l602.exe)
 FitSet:  NAtFit=     2 NAtPot=     2 NAtFrz=     0 MDM=     6 TotChg=   0.00000
 Merz-Kollman atomic radii used.

 **********************************************************************

            Electrostatic Properties Using The SCF Density

 **********************************************************************

       Atomic Center    1 is at   0.000000 -0.000000  0.129488
       Atomic Center    2 is at  -0.000000  0.000000 -1.165392
     273 points will be used for fitting atomic charges
 Fitting point charges to electrostatic potential
 Charges from ESP fit, RMS=   0.00380 RRMS=   0.15438:
 ESP charges:
               1
     1  F   -0.392015
     2  H    0.392015
 Sum of ESP charges =  -0.00000
 ESP charges with hydrogens summed into heavy atoms:
               1
     1  F   -0.000000
 Charge=  -0.00000 Dipole=    -0.0000     0.0000    -2.4382 Tot=     2.4382
 -----------------------------------------------------------------

              Electrostatic Properties (Atomic Units)

 -----------------------------------------------------------------
    Center     Electric         -------- Electric Field --------
               Potential          X             Y             Z
 -----------------------------------------------------------------
    1 Atom    -26.558705
    2 Atom     -0.816946
 -----------------------------------------------------------------
 Leave Link  602 at Sat Jan  1 18:25:33 2005, MaxMem=   524288000 cpu:               0.2 elap:               0.0
 (Enter /home/ubuntu/g16/l607.exe)
 ******************************Gaussian NBO Version 3.1******************************
             N A T U R A L   A T O M I C   O R B I T A L   A N D
          N A T U R A L   B O N D   O R B I T A L   A N A L Y S I S
 ******************************Gaussian NBO Version 3.1******************************

       /RESON  / : Allow strongly delocalized NBO set
       /BNDIDX / : Print bond indices based on the NAO density matrix

 Analyzing the SCF density

 Job title: HF_UB3LYP-aug-cc-pVDZ                                           

 Storage needed:      3284 in NPA,      4219 in NBO ( 524287972 available)
 GSVD:  LWork=        -426 too small for GESVD, short by        3101 words or        3101 for optimal perf.


 NATURAL POPULATIONS:  Natural atomic orbital occupancies 
                                                          
   NAO  Atom  No  lang   Type(AO)    Occupancy
 --------------------------------------------
     1    F    1  S      Cor( 1S)     1.99999
     2    F    1  S      Val( 2S)     1.97318
     3    F    1  S      Ryd( 3S)     0.00032
     4    F    1  S      Ryd( 4S)     0.00000
     5    F    1  px     Val( 2p)     1.99830
     6    F    1  px     Ryd( 3p)     0.00000
     7    F    1  px     Ryd( 4p)     0.00000
     8    F    1  py     Val( 2p)     1.99830
     9    F    1  py     Ryd( 3p)     0.00000
    10    F    1  py     Ryd( 4p)     0.00000
    11    F    1  pz     Val( 2p)     1.59936
    12    F    1  pz     Ryd( 3p)     0.00002
    13    F    1  pz     Ryd( 4p)     0.00000
    14    F    1  dxy    Ryd( 4d)     0.00000
    15    F    1  dxy    Ryd( 3d)     0.00000
    16    F    1  dxz    Ryd( 3d)     0.00100
    17    F    1  dxz    Ryd( 4d)     0.00001
    18    F    1  dyz    Ryd( 3d)     0.00100
    19    F    1  dyz    Ryd( 4d)     0.00001
    20    F    1  dx2y2  Ryd( 3d)     0.00000
    21    F    1  dx2y2  Ryd( 4d)     0.00000
    22    F    1  dz2    Ryd( 3d)     0.00133
    23    F    1  dz2    Ryd( 4d)     0.00002

    24    H    2  S      Val( 1S)     0.42452
    25    H    2  S      Ryd( 2S)     0.00029
    26    H    2  S      Ryd( 3S)     0.00000
    27    H    2  px     Ryd( 2p)     0.00064
    28    H    2  px     Ryd( 3p)     0.00006
    29    H    2  py     Ryd( 2p)     0.00064
    30    H    2  py     Ryd( 3p)     0.00006
    31    H    2  pz     Ryd( 2p)     0.00066
    32    H    2  pz     Ryd( 3p)     0.00029


 Summary of Natural Population Analysis:                  
                                                          
                                       Natural Population 
                Natural  -----------------------------------------------
    Atom  No    Charge         Core      Valence    Rydberg      Total
 -----------------------------------------------------------------------
      F    1   -0.57285      1.99999     7.56913    0.00373     9.57285
      H    2    0.57285      0.00000     0.42452    0.00264     0.42715
 =======================================================================
   * Total *    0.00000      1.99999     7.99365    0.00636    10.00000

                                 Natural Population      
 --------------------------------------------------------
   Core                       1.99999 ( 99.9996% of   2)
   Valence                    7.99365 ( 99.9206% of   8)
   Natural Minimal Basis      9.99364 ( 99.9364% of  10)
   Natural Rydberg Basis      0.00636 (  0.0636% of  10)
 --------------------------------------------------------

    Atom  No          Natural Electron Configuration
 ----------------------------------------------------------------------------
      F    1      [core]2S( 1.97)2p( 5.60)
      H    2            1S( 0.42)


 Wiberg bond index matrix in the NAO basis:                                    

     Atom    1       2
     ---- ------  ------
   1.  F  0.0000  0.6733
   2.  H  0.6733  0.0000


 Wiberg bond index, Totals by atom:                                            

     Atom    1
     ---- ------
   1.  F  0.6733
   2.  H  0.6733


 Atom-atom overlap-weighted NAO bond order:                                    

     Atom    1       2
     ---- ------  ------
   1.  F  0.0000  0.3842
   2.  H  0.3842  0.0000


 Atom-atom overlap-weighted NAO bond order, Totals by atom:                    

     Atom    1
     ---- ------
   1.  F  0.3842
   2.  H  0.3842


 MO bond order:                                                                

     Atom    1       2
     ---- ------  ------
   1.  F  0.0000 -0.4751
   2.  H -0.4751  0.0000


 MO atomic valencies:                                                          

     Atom    1
     ---- ------
   1.  F -0.4751
   2.  H -0.4751


 ***************************************************
 *******         Alpha spin orbitals         *******
 ***************************************************


 NATURAL POPULATIONS:  Natural atomic orbital occupancies 
                                                          
   NAO  Atom  No  lang   Type(AO)    Occupancy      Energy
 ----------------------------------------------------------
     1    F    1  S      Cor( 1S)     1.00000     -24.58254
     2    F    1  S      Val( 2S)     0.98659      -1.24119
     3    F    1  S      Ryd( 3S)     0.00016       0.42391
     4    F    1  S      Ryd( 4S)     0.00000       2.13891
     5    F    1  px     Val( 2p)     0.99915      -0.39525
     6    F    1  px     Ryd( 4p)     0.00000       1.20197
     7    F    1  px     Ryd( 3p)     0.00000       0.35731
     8    F    1  py     Val( 2p)     0.99915      -0.39525
     9    F    1  py     Ryd( 4p)     0.00000       1.20197
    10    F    1  py     Ryd( 3p)     0.00000       0.35731
    11    F    1  pz     Val( 2p)     0.79968      -0.39332
    12    F    1  pz     Ryd( 4p)     0.00001       1.38252
    13    F    1  pz     Ryd( 3p)     0.00000       0.50649
    14    F    1  dxy    Ryd( 3d)     0.00000       1.20179
    15    F    1  dxy    Ryd( 4d)     0.00000       4.36302
    16    F    1  dxz    Ryd( 3d)     0.00050       1.25635
    17    F    1  dxz    Ryd( 4d)     0.00000       4.42521
    18    F    1  dyz    Ryd( 3d)     0.00050       1.25635
    19    F    1  dyz    Ryd( 4d)     0.00000       4.42521
    20    F    1  dx2y2  Ryd( 3d)     0.00000       1.20179
    21    F    1  dx2y2  Ryd( 4d)     0.00000       4.36302
    22    F    1  dz2    Ryd( 3d)     0.00067       1.56449
    23    F    1  dz2    Ryd( 4d)     0.00001       4.51412

    24    H    2  S      Val( 1S)     0.21226      -0.13909
    25    H    2  S      Ryd( 2S)     0.00014       0.11829
    26    H    2  S      Ryd( 3S)     0.00000       0.51817
    27    H    2  px     Ryd( 3p)     0.00032       1.56087
    28    H    2  px     Ryd( 2p)     0.00003       0.29192
    29    H    2  py     Ryd( 3p)     0.00032       1.56087
    30    H    2  py     Ryd( 2p)     0.00003       0.29192
    31    H    2  pz     Ryd( 3p)     0.00033       1.91523
    32    H    2  pz     Ryd( 2p)     0.00015       0.41068

 WARNING:  Population inversion found on atom  F    1
           Population inversion found on atom  H    2


 Summary of Natural Population Analysis:                  
                                                          
                                       Natural Population 
                Natural  -----------------------------------------------
    Atom  No    Charge         Core      Valence    Rydberg      Total
 -----------------------------------------------------------------------
      F    1   -0.28642      1.00000     3.78457    0.00186     4.78642
      H    2    0.28642      0.00000     0.21226    0.00132     0.21358
 =======================================================================
   * Total *   -0.00000      1.00000     3.99682    0.00318     5.00000

                                 Natural Population      
 --------------------------------------------------------
   Core                       1.00000 ( 99.9996% of   1)
   Valence                    3.99682 ( 99.9206% of   4)
   Natural Minimal Basis      4.99682 ( 99.9364% of   5)
   Natural Rydberg Basis      0.00318 (  0.0636% of   5)
 --------------------------------------------------------

    Atom  No          Natural Electron Configuration
 ----------------------------------------------------------------------------
      F    1      [core]2S( 0.99)2p( 2.80)
      H    2            1S( 0.21)


 Wiberg bond index matrix in the NAO basis:                                    

     Atom    1       2
     ---- ------  ------
   1.  F  0.0000  0.1683
   2.  H  0.1683  0.0000


 Wiberg bond index, Totals by atom:                                            

     Atom    1
     ---- ------
   1.  F  0.1683
   2.  H  0.1683


 Atom-atom overlap-weighted NAO bond order:                                    

     Atom    1       2
     ---- ------  ------
   1.  F  0.0000  0.1921
   2.  H  0.1921  0.0000


 Atom-atom overlap-weighted NAO bond order, Totals by atom:                    

     Atom    1
     ---- ------
   1.  F  0.1921
   2.  H  0.1921


 MO bond order:                                                                

     Atom    1       2
     ---- ------  ------
   1.  F  0.0000 -0.2376
   2.  H -0.2376  0.0000


 MO atomic valencies:                                                          

     Atom    1
     ---- ------
   1.  F -0.2376
   2.  H -0.2376


 NATURAL BOND ORBITAL ANALYSIS, alpha spin orbitals:

                       Occupancies       Lewis Structure    Low   High
           Occ.    -------------------  -----------------   occ   occ
  Cycle   Thresh.   Lewis   Non-Lewis     CR  BD  3C  LP    (L)   (NL)   Dev
 =============================================================================
   1(1)    0.90     4.99913   0.00087      1   1   0   3     0      0    0.00
 -----------------------------------------------------------------------------

 Structure accepted: No low occupancy Lewis orbitals

 --------------------------------------------------------
   Core                      1.00000 (100.000% of   1)
   Valence Lewis             3.99913 ( 99.978% of   4)
  ==================       ============================
   Total Lewis               4.99913 ( 99.983% of   5)
  -----------------------------------------------------
   Valence non-Lewis         0.00000 (  0.000% of   5)
   Rydberg non-Lewis         0.00087 (  0.017% of   5)
  ==================       ============================
   Total non-Lewis           0.00087 (  0.017% of   5)
 --------------------------------------------------------


       (Occupancy)   Bond orbital/ Coefficients/ Hybrids
 ---------------------------------------------------------------------------------
     1. (1.00000) BD ( 1) F   1 - H   2  
                ( 78.73%)   0.8873* F   1 s(  6.21%)p15.10( 93.71%)d 0.01(  0.09%)
                                           -0.0000 -0.2487 -0.0140  0.0000  0.0000
                                            0.0000  0.0000  0.0000  0.0000  0.0000
                                            0.9680 -0.0009  0.0003  0.0000  0.0000
                                            0.0000  0.0000  0.0000  0.0000  0.0000
                                            0.0000 -0.0290 -0.0034
                ( 21.27%)   0.4612* H   2 s( 99.79%)p 0.00(  0.21%)
                                           -0.9989  0.0000  0.0000  0.0000  0.0000
                                            0.0000  0.0000 -0.0384  0.0253
     2. (1.00000) CR ( 1) F   1           s(100.00%)
                                            1.0000  0.0000 -0.0000  0.0000  0.0000
                                            0.0000  0.0000  0.0000  0.0000  0.0000
                                            0.0000 -0.0000 -0.0000  0.0000  0.0000
                                            0.0000  0.0000  0.0000  0.0000  0.0000
                                            0.0000  0.0000  0.0000
     3. (0.99983) LP ( 1) F   1           s( 93.81%)p 0.07(  6.19%)d 0.00(  0.00%)
                                           -0.0000  0.9685 -0.0028  0.0000  0.0000
                                            0.0000  0.0000  0.0000  0.0000  0.0000
                                            0.2488 -0.0034 -0.0003  0.0000  0.0000
                                            0.0000  0.0000  0.0000  0.0000  0.0000
                                            0.0000  0.0015  0.0018
     4. (0.99965) LP ( 2) F   1           s(  0.00%)p 1.00( 99.95%)d 0.00(  0.05%)
                                            0.0000  0.0000  0.0000  0.0000  0.9997
                                            0.0007 -0.0001  0.0000  0.0000  0.0000
                                            0.0000  0.0000  0.0000  0.0000  0.0000
                                           -0.0224  0.0018  0.0000  0.0000  0.0000
                                            0.0000  0.0000  0.0000
     5. (0.99965) LP ( 3) F   1           s(  0.00%)p 1.00( 99.95%)d 0.00(  0.05%)
                                            0.0000  0.0000  0.0000  0.0000  0.0000
                                            0.0000  0.0000  0.9997  0.0007 -0.0001
                                            0.0000  0.0000  0.0000  0.0000  0.0000
                                            0.0000  0.0000 -0.0224  0.0018  0.0000
                                            0.0000  0.0000  0.0000
     6. (0.00000) RY*( 1) F   1           s( 99.98%)p 0.00(  0.02%)d 0.00(  0.00%)
     7. (0.00000) RY*( 2) F   1           s(100.00%)
     8. (0.00000) RY*( 3) F   1           s(  0.00%)p 1.00(100.00%)
     9. (0.00000) RY*( 4) F   1           s(  0.00%)p 1.00(100.00%)
    10. (0.00000) RY*( 5) F   1           s(  0.00%)p 1.00(100.00%)
    11. (0.00000) RY*( 6) F   1           s(  0.00%)p 1.00(100.00%)
    12. (0.00000) RY*( 7) F   1           s(  0.00%)p 1.00(100.00%)
    13. (0.00000) RY*( 8) F   1           s(  0.00%)p 1.00(100.00%)
    14. (0.00000) RY*( 9) F   1           s(  0.00%)p 0.00(  0.00%)d 1.00(100.00%)
    15. (0.00000) RY*(10) F   1           s(  0.00%)p 0.00(  0.00%)d 1.00(100.00%)
    16. (0.00000) RY*(11) F   1           s(  0.00%)p 1.00(  0.05%)d99.99( 99.95%)
    17. (0.00000) RY*(12) F   1           s(  0.00%)p 0.00(  0.00%)d 1.00(100.00%)
    18. (0.00000) RY*(13) F   1           s(  0.00%)p 1.00(  0.05%)d99.99( 99.95%)
    19. (0.00000) RY*(14) F   1           s(  0.00%)p 0.00(  0.00%)d 1.00(100.00%)
    20. (0.00000) RY*(15) F   1           s(  0.00%)p 0.00(  0.00%)d 1.00(100.00%)
    21. (0.00000) RY*(16) F   1           s(  0.00%)p 0.00(  0.00%)d 1.00(100.00%)
    22. (0.00000) RY*(17) F   1           s(  0.01%)p 1.00(  0.08%)d99.99( 99.92%)
    23. (0.00000) RY*(18) F   1           s(  0.00%)p 0.00(  0.00%)d 1.00(100.00%)
    24. (0.00035) RY*( 1) H   2           s(  0.00%)p 1.00(100.00%)
                                            0.0000  0.0000  0.0000  0.9566  0.2916
                                            0.0000  0.0000  0.0000  0.0000
    25. (0.00035) RY*( 2) H   2           s(  0.00%)p 1.00(100.00%)
                                            0.0000  0.0000  0.0000  0.0000  0.0000
                                            0.9566  0.2916  0.0000  0.0000
    26. (0.00017) RY*( 3) H   2           s( 84.26%)p 0.19( 15.74%)
                                            0.0056  0.9179  0.0003  0.0000  0.0000
                                            0.0000  0.0000 -0.3087 -0.2491
    27. (0.00000) RY*( 4) H   2           s(  0.00%)p 1.00(100.00%)
    28. (0.00000) RY*( 5) H   2           s(100.00%)
    29. (0.00000) RY*( 6) H   2           s(  0.00%)p 1.00(100.00%)
    30. (0.00000) RY*( 7) H   2           s( 10.31%)p 8.70( 89.69%)
    31. (0.00000) RY*( 8) H   2           s(  5.64%)p16.74( 94.36%)
    32. (0.00000) BD*( 1) F   1 - H   2  
                ( 21.27%)   0.4612* F   1 s(  6.21%)p15.10( 93.71%)d 0.01(  0.09%)
                ( 78.73%)  -0.8873* H   2 s( 99.79%)p 0.00(  0.21%)


 NHO Directionality and "Bond Bending" (deviations from line of nuclear centers)

         [Thresholds for printing:  angular deviation  >  1.0 degree]
                                    hybrid p-character > 25.0%
                                    orbital occupancy  >  0.10e

                                Line of Centers        Hybrid 1              Hybrid 2
                                ---------------  -------------------   ------------------
                NBO               Theta   Phi    Theta   Phi    Dev    Theta   Phi    Dev
 ========================================================================================
     4. LP (   2) F   1             --     --     90.0    0.0   --       --     --    --
     5. LP (   3) F   1             --     --     90.0   90.0   --       --     --    --


 Second Order Perturbation Theory Analysis of Fock Matrix in NBO Basis

     Threshold for printing:   0.25 kcal/mol
                                                                              E(2)  E(j)-E(i) F(i,j)
         Donor NBO (i)                     Acceptor NBO (j)                 kcal/mol   a.u.    a.u. 
 ===================================================================================================

 within unit  1
   4. LP (   2) F   1                / 24. RY*(   1) H   2                    0.39    1.79    0.033
   5. LP (   3) F   1                / 25. RY*(   2) H   2                    0.39    1.79    0.033


 Natural Bond Orbitals (Summary):

                                                            Principal Delocalizations
           NBO                        Occupancy    Energy   (geminal,vicinal,remote)
 ====================================================================================
 Molecular unit  1  (HF)
     1. BD (   1) F   1 - H   2          1.00000    -0.57318   
     2. CR (   1) F   1                  1.00000   -24.58256   
     3. LP (   1) F   1                  0.99983    -1.17950   
     4. LP (   2) F   1                  0.99965    -0.39586  24(v)
     5. LP (   3) F   1                  0.99965    -0.39586  25(v)
     6. RY*(   1) F   1                  0.00000     0.42402   
     7. RY*(   2) F   1                  0.00000     2.13891   
     8. RY*(   3) F   1                  0.00000     1.20196   
     9. RY*(   4) F   1                  0.00000     0.35731   
    10. RY*(   5) F   1                  0.00000     1.20196   
    11. RY*(   6) F   1                  0.00000     0.35731   
    12. RY*(   7) F   1                  0.00000     1.38253   
    13. RY*(   8) F   1                  0.00000     0.50650   
    14. RY*(   9) F   1                  0.00000     1.20179   
    15. RY*(  10) F   1                  0.00000     4.36302   
    16. RY*(  11) F   1                  0.00000     1.25698   
    17. RY*(  12) F   1                  0.00000     4.42518   
    18. RY*(  13) F   1                  0.00000     1.25698   
    19. RY*(  14) F   1                  0.00000     4.42518   
    20. RY*(  15) F   1                  0.00000     1.20179   
    21. RY*(  16) F   1                  0.00000     4.36302   
    22. RY*(  17) F   1                  0.00000     1.56429   
    23. RY*(  18) F   1                  0.00000     4.51408   
    24. RY*(   1) H   2                  0.00035     1.39833   
    25. RY*(   2) H   2                  0.00035     1.39833   
    26. RY*(   3) H   2                  0.00017     0.32458   
    27. RY*(   4) H   2                  0.00000     0.45446   
    28. RY*(   5) H   2                  0.00000     0.51821   
    29. RY*(   6) H   2                  0.00000     0.45446   
    30. RY*(   7) H   2                  0.00000     1.69601   
    31. RY*(   8) H   2                  0.00000     0.41982   
    32. BD*(   1) F   1 - H   2          0.00000    -0.01705   
       -------------------------------
              Total Lewis    4.99913  ( 99.9826%)
        Valence non-Lewis    0.00000  (  0.0000%)
        Rydberg non-Lewis    0.00087  (  0.0174%)
       -------------------------------
            Total unit  1    5.00000  (100.0000%)
           Charge unit  1    0.00000


 ***************************************************
 *******         Beta  spin orbitals         *******
 ***************************************************


 NATURAL POPULATIONS:  Natural atomic orbital occupancies 
                                                          
   NAO  Atom  No  lang   Type(AO)    Occupancy      Energy
 ----------------------------------------------------------
     1    F    1  S      Cor( 1S)     1.00000     -24.58254
     2    F    1  S      Val( 2S)     0.98659      -1.24119
     3    F    1  S      Ryd( 3S)     0.00016       0.42391
     4    F    1  S      Ryd( 4S)     0.00000       2.13891
     5    F    1  px     Val( 2p)     0.99915      -0.39525
     6    F    1  px     Ryd( 4p)     0.00000       1.20197
     7    F    1  px     Ryd( 3p)     0.00000       0.35731
     8    F    1  py     Val( 2p)     0.99915      -0.39525
     9    F    1  py     Ryd( 4p)     0.00000       1.20197
    10    F    1  py     Ryd( 3p)     0.00000       0.35731
    11    F    1  pz     Val( 2p)     0.79968      -0.39332
    12    F    1  pz     Ryd( 4p)     0.00001       1.38252
    13    F    1  pz     Ryd( 3p)     0.00000       0.50649
    14    F    1  dxy    Ryd( 3d)     0.00000       1.20179
    15    F    1  dxy    Ryd( 4d)     0.00000       4.36302
    16    F    1  dxz    Ryd( 3d)     0.00050       1.25635
    17    F    1  dxz    Ryd( 4d)     0.00000       4.42521
    18    F    1  dyz    Ryd( 3d)     0.00050       1.25635
    19    F    1  dyz    Ryd( 4d)     0.00000       4.42521
    20    F    1  dx2y2  Ryd( 3d)     0.00000       1.20179
    21    F    1  dx2y2  Ryd( 4d)     0.00000       4.36302
    22    F    1  dz2    Ryd( 3d)     0.00067       1.56449
    23    F    1  dz2    Ryd( 4d)     0.00001       4.51412

    24    H    2  S      Val( 1S)     0.21226      -0.13909
    25    H    2  S      Ryd( 2S)     0.00014       0.11829
    26    H    2  S      Ryd( 3S)     0.00000       0.51817
    27    H    2  px     Ryd( 3p)     0.00032       1.56087
    28    H    2  px     Ryd( 2p)     0.00003       0.29192
    29    H    2  py     Ryd( 3p)     0.00032       1.56087
    30    H    2  py     Ryd( 2p)     0.00003       0.29192
    31    H    2  pz     Ryd( 3p)     0.00033       1.91523
    32    H    2  pz     Ryd( 2p)     0.00015       0.41068

 WARNING:  Population inversion found on atom  F    1
           Population inversion found on atom  H    2


 Summary of Natural Population Analysis:                  
                                                          
                                       Natural Population 
                Natural  -----------------------------------------------
    Atom  No    Charge         Core      Valence    Rydberg      Total
 -----------------------------------------------------------------------
      F    1   -0.28642      1.00000     3.78457    0.00186     4.78642
      H    2    0.28642      0.00000     0.21226    0.00132     0.21358
 =======================================================================
   * Total *   -0.00000      1.00000     3.99682    0.00318     5.00000

                                 Natural Population      
 --------------------------------------------------------
   Core                       1.00000 ( 99.9996% of   1)
   Valence                    3.99682 ( 99.9206% of   4)
   Natural Minimal Basis      4.99682 ( 99.9364% of   5)
   Natural Rydberg Basis      0.00318 (  0.0636% of   5)
 --------------------------------------------------------

    Atom  No          Natural Electron Configuration
 ----------------------------------------------------------------------------
      F    1      [core]2S( 0.99)2p( 2.80)
      H    2            1S( 0.21)


 Wiberg bond index matrix in the NAO basis:                                    

     Atom    1       2
     ---- ------  ------
   1.  F  0.0000  0.1683
   2.  H  0.1683  0.0000


 Wiberg bond index, Totals by atom:                                            

     Atom    1
     ---- ------
   1.  F  0.1683
   2.  H  0.1683


 Atom-atom overlap-weighted NAO bond order:                                    

     Atom    1       2
     ---- ------  ------
   1.  F  0.0000  0.1921
   2.  H  0.1921  0.0000


 Atom-atom overlap-weighted NAO bond order, Totals by atom:                    

     Atom    1
     ---- ------
   1.  F  0.1921
   2.  H  0.1921


 MO bond order:                                                                

     Atom    1       2
     ---- ------  ------
   1.  F  0.0000 -0.2376
   2.  H -0.2376  0.0000


 MO atomic valencies:                                                          

     Atom    1
     ---- ------
   1.  F -0.2376
   2.  H -0.2376


 NATURAL BOND ORBITAL ANALYSIS, beta spin orbitals:

                       Occupancies       Lewis Structure    Low   High
           Occ.    -------------------  -----------------   occ   occ
  Cycle   Thresh.   Lewis   Non-Lewis     CR  BD  3C  LP    (L)   (NL)   Dev
 =============================================================================
   1(1)    0.90     4.99913   0.00087      1   1   0   3     0      0    0.00
 -----------------------------------------------------------------------------

 Structure accepted: No low occupancy Lewis orbitals

 --------------------------------------------------------
   Core                      1.00000 (100.000% of   1)
   Valence Lewis             3.99913 ( 99.978% of   4)
  ==================       ============================
   Total Lewis               4.99913 ( 99.983% of   5)
  -----------------------------------------------------
   Valence non-Lewis         0.00000 (  0.000% of   5)
   Rydberg non-Lewis         0.00087 (  0.017% of   5)
  ==================       ============================
   Total non-Lewis           0.00087 (  0.017% of   5)
 --------------------------------------------------------


       (Occupancy)   Bond orbital/ Coefficients/ Hybrids
 ---------------------------------------------------------------------------------
     1. (1.00000) BD ( 1) F   1 - H   2  
                ( 78.73%)   0.8873* F   1 s(  6.21%)p15.10( 93.71%)d 0.01(  0.09%)
                                           -0.0000 -0.2487 -0.0140  0.0000  0.0000
                                            0.0000  0.0000  0.0000  0.0000  0.0000
                                            0.9680 -0.0009  0.0003  0.0000  0.0000
                                            0.0000  0.0000  0.0000  0.0000  0.0000
                                            0.0000 -0.0290 -0.0034
                ( 21.27%)   0.4612* H   2 s( 99.79%)p 0.00(  0.21%)
                                           -0.9989  0.0000  0.0000  0.0000  0.0000
                                            0.0000  0.0000 -0.0384  0.0253
     2. (1.00000) CR ( 1) F   1           s(100.00%)
                                            1.0000  0.0000 -0.0000  0.0000  0.0000
                                            0.0000  0.0000  0.0000  0.0000  0.0000
                                            0.0000 -0.0000 -0.0000  0.0000  0.0000
                                            0.0000  0.0000  0.0000  0.0000  0.0000
                                            0.0000  0.0000  0.0000
     3. (0.99983) LP ( 1) F   1           s( 93.81%)p 0.07(  6.19%)d 0.00(  0.00%)
                                           -0.0000  0.9685 -0.0028  0.0000  0.0000
                                            0.0000  0.0000  0.0000  0.0000  0.0000
                                            0.2488 -0.0034 -0.0003  0.0000  0.0000
                                            0.0000  0.0000  0.0000  0.0000  0.0000
                                            0.0000  0.0015  0.0018
     4. (0.99965) LP ( 2) F   1           s(  0.00%)p 1.00( 99.95%)d 0.00(  0.05%)
                                            0.0000  0.0000  0.0000  0.0000  0.9997
                                            0.0007 -0.0001  0.0000  0.0000  0.0000
                                            0.0000  0.0000  0.0000  0.0000  0.0000
                                           -0.0224  0.0018  0.0000  0.0000  0.0000
                                            0.0000  0.0000  0.0000
     5. (0.99965) LP ( 3) F   1           s(  0.00%)p 1.00( 99.95%)d 0.00(  0.05%)
                                            0.0000  0.0000  0.0000  0.0000  0.0000
                                            0.0000  0.0000  0.9997  0.0007 -0.0001
                                            0.0000  0.0000  0.0000  0.0000  0.0000
                                            0.0000  0.0000 -0.0224  0.0018  0.0000
                                            0.0000  0.0000  0.0000
     6. (0.00000) RY*( 1) F   1           s( 99.98%)p 0.00(  0.02%)d 0.00(  0.00%)
     7. (0.00000) RY*( 2) F   1           s(100.00%)
     8. (0.00000) RY*( 3) F   1           s(  0.00%)p 1.00(100.00%)
     9. (0.00000) RY*( 4) F   1           s(  0.00%)p 1.00(100.00%)
    10. (0.00000) RY*( 5) F   1           s(  0.00%)p 1.00(100.00%)
    11. (0.00000) RY*( 6) F   1           s(  0.00%)p 1.00(100.00%)
    12. (0.00000) RY*( 7) F   1           s(  0.00%)p 1.00(100.00%)
    13. (0.00000) RY*( 8) F   1           s(  0.00%)p 1.00(100.00%)
    14. (0.00000) RY*( 9) F   1           s(  0.00%)p 0.00(  0.00%)d 1.00(100.00%)
    15. (0.00000) RY*(10) F   1           s(  0.00%)p 0.00(  0.00%)d 1.00(100.00%)
    16. (0.00000) RY*(11) F   1           s(  0.00%)p 1.00(  0.05%)d99.99( 99.95%)
    17. (0.00000) RY*(12) F   1           s(  0.00%)p 0.00(  0.00%)d 1.00(100.00%)
    18. (0.00000) RY*(13) F   1           s(  0.00%)p 1.00(  0.05%)d99.99( 99.95%)
    19. (0.00000) RY*(14) F   1           s(  0.00%)p 0.00(  0.00%)d 1.00(100.00%)
    20. (0.00000) RY*(15) F   1           s(  0.00%)p 0.00(  0.00%)d 1.00(100.00%)
    21. (0.00000) RY*(16) F   1           s(  0.00%)p 0.00(  0.00%)d 1.00(100.00%)
    22. (0.00000) RY*(17) F   1           s(  0.01%)p 1.00(  0.08%)d99.99( 99.92%)
    23. (0.00000) RY*(18) F   1           s(  0.00%)p 0.00(  0.00%)d 1.00(100.00%)
    24. (0.00035) RY*( 1) H   2           s(  0.00%)p 1.00(100.00%)
                                            0.0000  0.0000  0.0000  0.9566  0.2916
                                            0.0000  0.0000  0.0000  0.0000
    25. (0.00035) RY*( 2) H   2           s(  0.00%)p 1.00(100.00%)
                                            0.0000  0.0000  0.0000  0.0000  0.0000
                                            0.9566  0.2916  0.0000  0.0000
    26. (0.00017) RY*( 3) H   2           s( 84.26%)p 0.19( 15.74%)
                                            0.0056  0.9179  0.0003  0.0000  0.0000
                                            0.0000  0.0000 -0.3087 -0.2491
    27. (0.00000) RY*( 4) H   2           s(  0.00%)p 1.00(100.00%)
    28. (0.00000) RY*( 5) H   2           s(100.00%)
    29. (0.00000) RY*( 6) H   2           s(  0.00%)p 1.00(100.00%)
    30. (0.00000) RY*( 7) H   2           s( 10.31%)p 8.70( 89.69%)
    31. (0.00000) RY*( 8) H   2           s(  5.64%)p16.74( 94.36%)
    32. (0.00000) BD*( 1) F   1 - H   2  
                ( 21.27%)   0.4612* F   1 s(  6.21%)p15.10( 93.71%)d 0.01(  0.09%)
                ( 78.73%)  -0.8873* H   2 s( 99.79%)p 0.00(  0.21%)


 NHO Directionality and "Bond Bending" (deviations from line of nuclear centers)

         [Thresholds for printing:  angular deviation  >  1.0 degree]
                                    hybrid p-character > 25.0%
                                    orbital occupancy  >  0.10e

                                Line of Centers        Hybrid 1              Hybrid 2
                                ---------------  -------------------   ------------------
                NBO               Theta   Phi    Theta   Phi    Dev    Theta   Phi    Dev
 ========================================================================================
     4. LP (   2) F   1             --     --     90.0    0.0   --       --     --    --
     5. LP (   3) F   1             --     --     90.0   90.0   --       --     --    --


 Second Order Perturbation Theory Analysis of Fock Matrix in NBO Basis

     Threshold for printing:   0.25 kcal/mol
                                                                              E(2)  E(j)-E(i) F(i,j)
         Donor NBO (i)                     Acceptor NBO (j)                 kcal/mol   a.u.    a.u. 
 ===================================================================================================

 within unit  1
   4. LP (   2) F   1                / 24. RY*(   1) H   2                    0.39    1.79    0.033
   5. LP (   3) F   1                / 25. RY*(   2) H   2                    0.39    1.79    0.033


 Natural Bond Orbitals (Summary):

                                                            Principal Delocalizations
           NBO                        Occupancy    Energy   (geminal,vicinal,remote)
 ====================================================================================
 Molecular unit  1  (HF)
     1. BD (   1) F   1 - H   2          1.00000    -0.57318   
     2. CR (   1) F   1                  1.00000   -24.58256   
     3. LP (   1) F   1                  0.99983    -1.17950   
[...]
                                            0.0000 -0.0077  0.0019
     4. (0.99907) LP ( 2) F   1           s(  0.00%)p 1.00( 99.89%)d 0.00(  0.11%)
                                            0.0000  0.0000  0.0000  0.0000  0.9994
                                            0.0136 -0.0005  0.0000  0.0000  0.0000
                                            0.0000  0.0000  0.0000  0.0000  0.0000
                                           -0.0322  0.0044  0.0000  0.0000  0.0000
                                            0.0000  0.0000  0.0000
     5. (0.99907) LP ( 3) F   1           s(  0.00%)p 1.00( 99.89%)d 0.00(  0.11%)
                                            0.0000  0.0000  0.0000  0.0000  0.0000
                                            0.0000  0.0000  0.9994  0.0136 -0.0005
                                            0.0000  0.0000  0.0000  0.0000  0.0000
                                            0.0000  0.0000 -0.0322  0.0044  0.0000
                                            0.0000  0.0000  0.0000
     6. (0.00000) RY*( 1) F   1           s( 99.96%)p 0.00(  0.04%)d 0.00(  0.00%)
     7. (0.00000) RY*( 2) F   1           s(100.00%)
     8. (0.00000) RY*( 3) F   1           s(  0.00%)p 1.00(100.00%)d 0.00(  0.00%)
     9. (0.00000) RY*( 4) F   1           s(  0.00%)p 1.00(100.00%)
    10. (0.00000) RY*( 5) F   1           s(  0.00%)p 1.00(100.00%)d 0.00(  0.00%)
    11. (0.00000) RY*( 6) F   1           s(  0.00%)p 1.00(100.00%)
    12. (0.00000) RY*( 7) F   1           s(  0.02%)p99.99( 99.98%)d 0.01(  0.00%)
    13. (0.00000) RY*( 8) F   1           s(  0.00%)p 1.00(100.00%)
    14. (0.00000) RY*( 9) F   1           s(  0.00%)p 0.00(  0.00%)d 1.00(100.00%)
    15. (0.00000) RY*(10) F   1           s(  0.00%)p 0.00(  0.00%)d 1.00(100.00%)
    16. (0.00000) RY*(11) F   1           s(  0.00%)p 1.00(  0.10%)d99.99( 99.90%)
    17. (0.00000) RY*(12) F   1           s(  0.00%)p 0.00(  0.00%)d 1.00(100.00%)
    18. (0.00000) RY*(13) F   1           s(  0.00%)p 1.00(  0.10%)d99.99( 99.90%)
    19. (0.00000) RY*(14) F   1           s(  0.00%)p 0.00(  0.00%)d 1.00(100.00%)
    20. (0.00000) RY*(15) F   1           s(  0.00%)p 0.00(  0.00%)d 1.00(100.00%)
    21. (0.00000) RY*(16) F   1           s(  0.00%)p 0.00(  0.00%)d 1.00(100.00%)
    22. (0.00000) RY*(17) F   1           s(  0.01%)p11.91(  0.17%)d99.99( 99.82%)
    23. (0.00000) RY*(18) F   1           s(  0.00%)p 0.00(  0.01%)d 1.00( 99.99%)
    24. (0.00093) RY*( 1) H   2           s(  0.00%)p 1.00(100.00%)
                                            0.0000  0.0000  0.0000  0.9842  0.1773
                                            0.0000  0.0000  0.0000  0.0000
    25. (0.00093) RY*( 2) H   2           s(  0.00%)p 1.00(100.00%)
                                            0.0000  0.0000  0.0000  0.0000  0.0000
                                            0.9842  0.1773  0.0000  0.0000
    26. (0.00016) RY*( 3) H   2           s( 54.70%)p 0.83( 45.30%)
                                            0.0221  0.7392 -0.0086  0.0000  0.0000
                                            0.0000  0.0000 -0.5241 -0.4222
    27. (0.00000) RY*( 4) H   2           s(  0.00%)p 1.00(100.00%)
    28. (0.00001) RY*( 5) H   2           s(100.00%)p 0.00(  0.00%)
    29. (0.00000) RY*( 6) H   2           s(  0.00%)p 1.00(100.00%)
    30. (0.00000) RY*( 7) H   2           s( 33.87%)p 1.95( 66.13%)
    31. (0.00000) RY*( 8) H   2           s( 11.90%)p 7.40( 88.10%)
    32. (0.00000) BD*( 1) F   1 - H   2  
                ( 21.48%)   0.4635* F   1 s( 19.91%)p 4.01( 79.90%)d 0.01(  0.18%)
                ( 78.52%)  -0.8861* H   2 s( 99.53%)p 0.00(  0.47%)


 NHO Directionality and "Bond Bending" (deviations from line of nuclear centers)

         [Thresholds for printing:  angular deviation  >  1.0 degree]
                                    hybrid p-character > 25.0%
                                    orbital occupancy  >  0.10e

                                Line of Centers        Hybrid 1              Hybrid 2
                                ---------------  -------------------   ------------------
                NBO               Theta   Phi    Theta   Phi    Dev    Theta   Phi    Dev
 ========================================================================================
     4. LP (   2) F   1             --     --     90.0    0.0   --       --     --    --
     5. LP (   3) F   1             --     --     90.0   90.0   --       --     --    --


 Second Order Perturbation Theory Analysis of Fock Matrix in NBO Basis

     Threshold for printing:   0.25 kcal/mol
                                                                              E(2)  E(j)-E(i) F(i,j)
         Donor NBO (i)                     Acceptor NBO (j)                 kcal/mol   a.u.    a.u. 
 ===================================================================================================

 within unit  1
   4. LP (   2) F   1                / 24. RY*(   1) H   2                    1.06    1.81    0.055
   5. LP (   3) F   1                / 25. RY*(   2) H   2                    1.06    1.81    0.055


 Natural Bond Orbitals (Summary):

                                                            Principal Delocalizations
           NBO                        Occupancy    Energy   (geminal,vicinal,remote)
 ====================================================================================
 Molecular unit  1  (HF)
     1. BD (   1) F   1 - H   2          1.00000    -0.86324   
     2. CR (   1) F   1                  0.99998   -24.51379   
     3. LP (   1) F   1                  0.99985    -1.10813   
     4. LP (   2) F   1                  0.99907    -0.42174  24(v)
     5. LP (   3) F   1                  0.99907    -0.42174  25(v)
     6. RY*(   1) F   1                  0.00000     2.34810   
     7. RY*(   2) F   1                  0.00000     0.57272   
     8. RY*(   3) F   1                  0.00000     0.86952   
     9. RY*(   4) F   1                  0.00000     0.70857   
    10. RY*(   5) F   1                  0.00000     0.86952   
    11. RY*(   6) F   1                  0.00000     0.70857   
    12. RY*(   7) F   1                  0.00000     1.12744   
    13. RY*(   8) F   1                  0.00000     0.69879   
    14. RY*(   9) F   1                  0.00000     1.42293   
    15. RY*(  10) F   1                  0.00000     4.09371   
    16. RY*(  11) F   1                  0.00000     1.51969   
    17. RY*(  12) F   1                  0.00000     4.19609   
    18. RY*(  13) F   1                  0.00000     1.51969   
    19. RY*(  14) F   1                  0.00000     4.19609   
    20. RY*(  15) F   1                  0.00000     1.42293   
    21. RY*(  16) F   1                  0.00000     4.09371   
    22. RY*(  17) F   1                  0.00000     2.04044   
    23. RY*(  18) F   1                  0.00000     4.22978   
    24. RY*(   1) H   2                  0.00093     1.38544   
    25. RY*(   2) H   2                  0.00093     1.38544   
    26. RY*(   3) H   2                  0.00016     0.66172   
    27. RY*(   4) H   2                  0.00000     0.68476   
    28. RY*(   5) H   2                  0.00001     0.37646   
    29. RY*(   6) H   2                  0.00000     0.68476   
    30. RY*(   7) H   2                  0.00000     1.75115   
    31. RY*(   8) H   2                  0.00000     0.82108   
    32. BD*(   1) F   1 - H   2          0.00000     0.42553   
       -------------------------------
              Total Lewis    4.99797  ( 99.9594%)
        Valence non-Lewis    0.00000  (  0.0000%)
        Rydberg non-Lewis    0.00203  (  0.0406%)
       -------------------------------
            Total unit  1    5.00000  (100.0000%)
           Charge unit  1    0.00000
 Leave Link  607 at Sat Jan  1 18:25:41 2005, MaxMem=   524288000 cpu:               1.9 elap:               0.3
 (Enter /home/ubuntu/g16/l701.exe)
 ... and contract with generalized density number  0.
 Compute integral second derivatives.
 Leave Link  701 at Sat Jan  1 18:25:42 2005, MaxMem=   524288000 cpu:               1.3 elap:               0.2
 (Enter /home/ubuntu/g16/l702.exe)
 L702 exits ... SP integral derivatives will be done elsewhere.
 Leave Link  702 at Sat Jan  1 18:25:42 2005, MaxMem=   524288000 cpu:               0.2 elap:               0.0
 (Enter /home/ubuntu/g16/l703.exe)
 Integral derivatives from FoFJK, PRISM(SPDF).
 Compute integral second derivatives, UseDBF=F ICtDFT=           0.
 Calling FoFJK, ICntrl=    100127 FMM=F ISym2X=1 I1Cent= 0 IOpClX= 1 NMat=1 NMatS=1 NMatT=0.
 FoFJK:  IHMeth= 1 ICntrl=  100127 DoSepK=F KAlg= 0 I1Cent=           0 FoldK=F
 IRaf=         0 NMat=       1 IRICut=       1 DoRegI=T DoRafI=F ISym2E= 1 IDoP0=0 IntGTp=1.
 FoFCou: FMM=F IPFlag=           0 FMFlag=      100000 FMFlg1=         800
         NFxFlg=           0 DoJE=F BraDBF=F KetDBF=F FulRan=T
         wScrn=  0.000000 ICntrl=    100127 IOpCl=  1 I1Cent=           0 NGrid=           0
         NMat0=    1 NMatS0=      1 NMatT0=    0 NMatD0=    1 NMtDS0=    0 NMtDT0=    0
 Petite list used in FoFCou.
 Leave Link  703 at Sat Jan  1 18:25:42 2005, MaxMem=   524288000 cpu:               2.4 elap:               0.4
 (Enter /home/ubuntu/g16/l716.exe)
 Dipole        =-4.37905770D-47 2.95822839D-31-7.09181950D-01
 Polarizability= 4.48276935D+00 2.70138026D-12 4.48276935D+00
                -4.83610840D-12-1.82643633D-12 6.51601624D+00
 Full mass-weighted force constant matrix:
 Low frequencies ---   -0.0021   -0.0011   -0.0011    5.0287    5.0287 4061.9801
 Diagonal vibrational polarizability:
        0.0000000       0.0000000       0.1815513
 Harmonic frequencies (cm**-1), IR intensities (KM/Mole), Raman scattering
 activities (A**4/AMU), depolarization ratios for plane and unpolarized
 incident light, reduced masses (AMU), force constants (mDyne/A),
 and normal coordinates:
                      1
                     SG
 Frequencies --   4061.9801
 Red. masses --      1.0583
 Frc consts  --     10.2882
 IR Inten    --    111.3119
  Atom  AN      X      Y      Z
     1   9     0.00  -0.00  -0.05
     2   1    -0.00   0.00   1.00

 -------------------
 - Thermochemistry -
 -------------------
 Temperature   298.150 Kelvin.  Pressure   1.00000 Atm.
 Atom     1 has atomic number  9 and mass  18.99840
 Atom     2 has atomic number  1 and mass   1.00783
 Molecular mass:    20.00623 amu.
 Principal axes and moments of inertia in atomic units:
                           1         2         3
     Eigenvalues --     0.00000   2.92856   2.92856
           X           -0.00000  -0.00000   1.00000
           Y            0.00000   1.00000   0.00000
           Z            1.00000  -0.00000   0.00000
 This molecule is a prolate symmetric top.
 Rotational symmetry number  1.
 Rotational temperature (Kelvin)     29.57557
 Rotational constant (GHZ):         616.254819
 Zero-point vibrational energy      24296.0 (Joules/Mol)
                                    5.80689 (Kcal/Mol)
 Vibrational temperatures:   5844.28
          (Kelvin)
 
 Zero-point correction=                           0.009254 (Hartree/Particle)
 Thermal correction to Energy=                    0.011614
 Thermal correction to Enthalpy=                  0.012559
 Thermal correction to Gibbs Free Energy=        -0.007160
 Sum of electronic and zero-point Energies=           -100.451508
 Sum of electronic and thermal Energies=              -100.449147
 Sum of electronic and thermal Enthalpies=            -100.448203
 Sum of electronic and thermal Free Energies=         -100.467921
 
                     E (Thermal)             CV                S
                      KCal/Mol        Cal/Mol-Kelvin    Cal/Mol-Kelvin
 Total                    7.288              4.968             41.500
 Electronic               0.000              0.000              0.000
 Translational            0.889              2.981             34.922
 Rotational               0.592              1.987              6.579
 Vibrational              5.807              0.000              0.000
                       Q            Log10(Q)             Ln(Q)
 Total Bot       0.196436D+04          3.293222          7.582923
 Total V=0       0.354571D+08          7.549703         17.383835
 Vib (Bot)       0.554011D-04         -4.256482         -9.800911
 Vib (V=0)       0.100000D+01          0.000000          0.000000
 Electronic      0.100000D+01          0.000000          0.000000
 Translational   0.351724D+07          6.546202         15.073186
 Rotational      0.100810D+02          1.003502          2.310648
 ***** Axes restored to original set *****
 -------------------------------------------------------------------
 Center     Atomic                   Forces (Hartrees/Bohr)
 Number     Number              X              Y              Z
 -------------------------------------------------------------------
      1        9           0.000000101    0.000000000    0.000000000
      2        1          -0.000000101   -0.000000000   -0.000000000
 -------------------------------------------------------------------
 Cartesian Forces:  Max     0.000000101 RMS     0.000000059
 Force constants in Cartesian coordinates: 
                1             2             3             4             5 
      1  0.597591D+00
      2  0.000000D+00  0.000000D+00
      3  0.000000D+00  0.000000D+00  0.000000D+00
      4 -0.597591D+00  0.000000D+00  0.000000D+00  0.597591D+00
      5  0.000000D+00  0.000000D+00  0.000000D+00  0.000000D+00  0.000000D+00
      6  0.000000D+00  0.000000D+00  0.000000D+00  0.000000D+00  0.000000D+00
                6 
      6  0.000000D+00
 FormGI is forming the generalized inverse of G from B-inverse, IUseBI=4.
 Force constants in internal coordinates: 
                1 
      1  0.597591D+00
 Leave Link  716 at Sat Jan  1 18:25:42 2005, MaxMem=   524288000 cpu:               0.2 elap:               0.0
 (Enter /home/ubuntu/g16/l103.exe)

 GradGradGradGradGradGradGradGradGradGradGradGradGradGradGradGradGradGrad
 Berny optimization.
 Red2BG is reusing G-inverse.
 Internal  Forces:  Max     0.000000101 RMS     0.000000101
 Search for a local minimum.
 Step number   1 out of a maximum of    2
 All quantities printed in internal units (Hartrees-Bohrs-Radians)
 Second derivative matrix not updated -- analytic derivatives used.
 The second derivative matrix:
                          R1
           R1           0.59759
 ITU=  0
     Eigenvalues ---    0.59759
 Angle between quadratic step and forces=  90.00 degrees.
 Linear search not attempted -- first point.
 Iteration  1 RMS(Cart)=  0.00000012 RMS(Int)=  0.00000000
 ITry= 1 IFail=0 DXMaxC= 8.49D-08 DCOld= 1.00D+10 DXMaxT= 3.00D-01 DXLimC= 3.00D+00 Rises=F
 ClnCor:  largest displacement from symmetrization is 0.00D+00 for atom     0.
 Variable       Old X    -DE/DX   Delta X   Delta X   Delta X     New X
                                 (Linear)    (Quad)   (Total)
    R1        1.74928   0.00000   0.00000   0.00000   0.00000   1.74928
         Item               Value     Threshold  Converged?
 Maximum Force            0.000000     0.000450     YES
 RMS     Force            0.000000     0.000300     YES
 Maximum Displacement     0.000000     0.001800     YES
 RMS     Displacement     0.000000     0.001200     YES
 Predicted change in Energy=-8.616264D-15
 Optimization completed.
    -- Stationary point found.
                           ----------------------------
                           !   Optimized Parameters   !
                           ! (Angstroms and Degrees)  !
 --------------------------                            --------------------------
 ! Name  Definition              Value          Derivative Info.                !
 --------------------------------------------------------------------------------
 ! R1    R(1,2)                  0.9257         -DE/DX =    0.0                 !
 --------------------------------------------------------------------------------
 GradGradGradGradGradGradGradGradGradGradGradGradGradGradGradGradGradGrad

 Leave Link  103 at Sat Jan  1 18:25:42 2005, MaxMem=   524288000 cpu:               0.1 elap:               0.0
 (Enter /home/ubuntu/g16/l9999.exe)

 ----------------------------------------------------------------------

 Electric dipole moment (input orientation):
 (Debye = 10**-18 statcoulomb cm , SI units = C m)
                  (au)            (Debye)         (10**-30 SI)
   Tot        0.709182D+00      0.180256D+01      0.601270D+01
   x         -0.709182D+00     -0.180256D+01     -0.601270D+01
   y          0.000000D+00      0.000000D+00      0.000000D+00
   z          0.000000D+00      0.000000D+00      0.000000D+00

 Dipole polarizability, Alpha (input orientation).
 (esu units = cm**3 , SI units = C**2 m**2 J**-1)
 Alpha(0;0):
               (au)            (10**-24 esu)      (10**-40 SI)
   iso        0.516052D+01      0.764710D+00      0.850855D+00
   aniso      0.203325D+01      0.301296D+00      0.335237D+00
   xx         0.651602D+01      0.965574D+00      0.107435D+01
   yx         0.000000D+00      0.000000D+00      0.000000D+00
   yy         0.448277D+01      0.664278D+00      0.739109D+00
   zx         0.000000D+00      0.000000D+00      0.000000D+00
   zy         0.000000D+00      0.000000D+00      0.000000D+00
   zz         0.448277D+01      0.664278D+00      0.739109D+00

 ----------------------------------------------------------------------

 Dipole orientation:
     9          0.00755890         -0.99720848          1.76152903
     1          0.00755890         -0.99720848          3.51080686

 Electric dipole moment (dipole orientation):
 (Debye = 10**-18 statcoulomb cm , SI units = C m)
                  (au)            (Debye)         (10**-30 SI)
   Tot        0.709182D+00      0.180256D+01      0.601270D+01
   x          0.000000D+00      0.000000D+00      0.000000D+00
   y          0.000000D+00      0.000000D+00      0.000000D+00
   z          0.709182D+00      0.180256D+01      0.601270D+01

 Dipole polarizability, Alpha (dipole orientation).
 (esu units = cm**3 , SI units = C**2 m**2 J**-1)
 Alpha(0;0):
               (au)            (10**-24 esu)      (10**-40 SI)
   iso        0.516052D+01      0.764710D+00      0.850855D+00
   aniso      0.203325D+01      0.301296D+00      0.335237D+00
   xx         0.448277D+01      0.664278D+00      0.739109D+00
   yx         0.000000D+00      0.000000D+00      0.000000D+00
   yy         0.448277D+01      0.664278D+00      0.739109D+00
   zx         0.000000D+00      0.000000D+00      0.000000D+00
   zy         0.000000D+00      0.000000D+00      0.000000D+00
   zz         0.651602D+01      0.965574D+00      0.107435D+01

 ----------------------------------------------------------------------
 1\1\GINC-LC06-1-8\Freq\UB3LYP\Aug-CC-pVDZ\F1H1\UBUNTU\01-Jan-2005\0\\#
 P Geom=AllCheck Guess=TCheck SCRF=Check GenChk UB3LYP/Aug-CC-pVDZ Freq
 \\HF_UB3LYP-aug-cc-pVDZ\\0,1\F,-0.9321610201,-0.5277,0.004\H,-1.857838
 9799,-0.5277,0.004\\Version=ES64L-G16RevA.03\State=1-SG\HF=-100.460761
 8\S2=0.\S2-1=0.\S2A=0.\RMSD=1.454e-10\RMSF=5.859e-08\ZeroPoint=0.00925
 39\Thermal=0.0116143\Dipole=-0.709182,0.,0.\DipoleDeriv=-0.3305702,0.,
 0.,0.,-0.4054154,0.,0.,0.,-0.4054154,0.3305702,0.,0.,0.,0.4054154,0.,0
 .,0.,0.4054154\Polar=6.5160162,0.,4.4827694,0.,0.,4.4827694\Quadrupole
 =1.046949,-0.5234745,-0.5234745,0.,0.,0.\PG=C*V [C*(H1F1)]\NImag=0\\0.
 59759102,0.,0.00000092,0.,0.,0.00000092,-0.59759102,0.,0.,0.59759102,0
 .,-0.00000092,0.,0.,0.00000092,0.,0.,-0.00000092,0.,0.,0.00000092\\-0.
 00000010,0.,0.,0.00000010,0.,0.\\\@


 THERE'S SMALL CHOICE IN A BOWL OF ROTTEN APPLES.
                     SHAKESPEARE
 Job cpu time:       0 days  0 hours  0 minutes 17.6 seconds.
 Elapsed time:       0 days  0 hours  0 minutes  2.8 seconds.
 File lengths (MBytes):  RWF=      6 Int=      0 D2E=      0 Chk=      1 Scr=      1
 Normal termination of Gaussian 16 at Sat Jan  1 18:25:42 2005.
