 Entering Gaussian System, Link 0=/home/ubuntu/g16/g16
 Input=HNO3_UB3LYP-aug-cc-pVDZ-Opt.gjf
 Output=HNO3_UB3LYP-aug-cc-pVDZ-Opt.log
 Initial command:
 /home/ubuntu/g16/l1.exe "/home/ubuntu/g16/Gau-20152.inp" -scrdir="/home/ubuntu/g16/"
 Entering Link 1 = /home/ubuntu/g16/l1.exe PID=     20154.
  
 Copyright (c) 1988,1990,1992,1993,1995,1998,2003,2009,2016,
            Gaussian, Inc.  All Rights Reserved.
  
 This is part of the Gaussian(R) 16 program.  It is based on
 the Gaussian(R) 09 system (copyright 2009, Gaussian, Inc.),
 the Gaussian(R) 03 system (copyright 2003, Gaussian, Inc.),
 the Gaussian(R) 98 system (copyright 1998, Gaussian, Inc.),
 the Gaussian(R) 94 system (copyright 1995, Gaussian, Inc.),
 the Gaussian 92(TM) system (copyright 1992, Gaussian, Inc.),
 the Gaussian 90(TM) system (copyright 1990, Gaussian, Inc.),
 the Gaussian 88(TM) system (copyright 1988, Gaussian, Inc.),
 the Gaussian 86(TM) system (copyright 1986, Carnegie Mellon
 University), and the Gaussian 82(TM) system (copyright 1983,
 Carnegie Mellon University). Gaussian is a federally registered
 trademark of Gaussian, Inc.
  
 This software contains proprietary and confidential information,
 including trade secrets, belonging to Gaussian, Inc.
  
 This software is provided under written license and may be
 used, copied, transmitted, or stored only in accord with that
 written license.
  
 The following legend is applicable only to US Government
 contracts under FAR:
  
                    RESTRICTED RIGHTS LEGEND
  
 Use, reproduction and disclosure by the US Government is
 subject to restrictions as set forth in subparagraphs (a)
 and (c) of the Commercial Computer Software - Restricted
 Rights clause in FAR 52.227-19.
  
 Gaussian, Inc.
 340 Quinnipiac St., Bldg. 40, Wallingford CT 06492
  
  
 ---------------------------------------------------------------
 Warning -- This program may not be used in any manner that
 competes with the business of Gaussian, Inc. or will provide
 assistance to any competitor of Gaussian, Inc.  The licensee
 of this program is prohibited from giving any competitor of
 Gaussian, Inc. access to this program.  By using this program,
 the user acknowledges that Gaussian, Inc. is engaged in the
 business of creating and licensing software in the field of
 computational chemistry and represents and warrants to the
 licensee that it is not a competitor of Gaussian, Inc. and that
 it will not use this program in any manner prohibited above.
 ---------------------------------------------------------------
  

 Cite this work as:
 Gaussian 16, Revision A.03,
 M. J. Frisch, G. W. Trucks, H. B. Schlegel, G. E. Scuseria, 
 M. A. Robb, J. R. Cheeseman, G. Scalmani, V. Barone, 
 G. A. Petersson, H. Nakatsuji, X. Li, M. Caricato, A. V. Marenich, 
 J. Bloino, B. G. Janesko, R. Gomperts, B. Mennucci, H. P. Hratchian, 
 J. V. Ortiz, A. F. Izmaylov, J. L. Sonnenberg, D. Williams-Young, 
 F. Ding, F. Lipparini, F. Egidi, J. Goings, B. Peng, A. Petrone, 
 T. Henderson, D. Ranasinghe, V. G. Zakrzewski, J. Gao, N. Rega, 
 G. Zheng, W. Liang, M. Hada, M. Ehara, K. Toyota, R. Fukuda, 
 J. Hasegawa, M. Ishida, T. Nakajima, Y. Honda, O. Kitao, H. Nakai, 
 T. Vreven, K. Throssell, J. A. Montgomery, Jr., J. E. Peralta, 
 F. Ogliaro, M. J. Bearpark, J. J. Heyd, E. N. Brothers, K. N. Kudin, 
 V. N. Staroverov, T. A. Keith, R. Kobayashi, J. Normand, 
 K. Raghavachari, A. P. Rendell, J. C. Burant, S. S. Iyengar, 
 J. Tomasi, M. Cossi, J. M. Millam, M. Klene, C. Adamo, R. Cammi, 
 J. W. Ochterski, R. L. Martin, K. Morokuma, O. Farkas, 
 J. B. Foresman, and D. J. Fox, Gaussian, Inc., Wallingford CT, 2016.
 
 ******************************************
 Gaussian 16:  ES64L-G16RevA.03 25-Dec-2016
                 1-Aug-2020 
 ******************************************
 %chk=HNO3_UB3LYP-aug-cc-pVDZ-Opt.chk
 %mem=500MW
 %nproc=7
 Will use up to    7 processors via shared memory.
 ----------------------------------------------------------------------
 #p opt=(maxcycles=777) freq ub3lyp/aug-cc-pVDZ pop=(Bonding,AllOrbital
 s,mk,no,nboread)
 ----------------------------------------------------------------------
 1/6=777,18=20,19=15,26=3,38=1/1,3;
 2/9=110,12=2,17=6,18=5,40=1/2;
 3/5=16,7=10,11=2,25=1,30=1,71=1,74=-5,116=2/1,2,3;
 4//1;
 5/5=2,38=5/2;
 6/7=2,8=2,9=2,10=2,15=8,20=1,22=-1,27=20,28=1,31=1,40=2,96=-1/1,2,7;
 7//1,2,3,16;
 1/6=777,18=20,19=15,26=3/3(2);
 2/9=110/2;
 99//99;
 2/9=110/2;
 3/5=16,7=10,11=2,25=1,30=1,71=1,74=-5,116=2/1,2,3;
 4/5=5,16=3,69=1/1;
 5/5=2,38=5/2;
 7//1,2,3,16;
 1/6=777,18=20,19=15,26=3/3(-5);
 2/9=110/2;
 6/7=2,8=2,9=2,10=2,15=8,19=2,20=1,22=-1,27=20,28=1,31=1,40=2,96=-1/1,2,7;
 99/9=1/99;
 Leave Link    1 at Sat Aug  1 14:44:59 2020, MaxMem=   524288000 cpu:               0.4 elap:               0.1
 (Enter /home/ubuntu/g16/l101.exe)
 -----------------------
 HNO3_UB3LYP-aug-cc-pVDZ
 -----------------------
 Symbolic Z-matrix:
 Charge =  0 Multiplicity = 1
 N                    -0.8044   -0.5602    0. 
 O                     0.3949   -0.5602    0. 
 O                    -1.4614    0.4432    0. 
 O                    -1.4512   -1.7566    0. 
 H                    -0.8072   -2.4685    0. 
 
 Add atom      1 valence  3 ND=      2 dihedral       2      1      3      4
 ITRead=  0  0  0  0  0
 MicOpt= -1 -1 -1 -1 -1
 NAtoms=      5 NQM=        5 NQMF=       0 NMMI=      0 NMMIF=      0
                NMic=       0 NMicF=      0.
                    Isotopes and Nuclear Properties:
 (Nuclear quadrupole moments (NQMom) in fm**2, nuclear magnetic moments (NMagM)
  in nuclear magnetons)

  Atom         1           2           3           4           5
 IAtWgt=          14          16          16          16           1
 AtmWgt=  14.0030740  15.9949146  15.9949146  15.9949146   1.0078250
 NucSpn=           2           0           0           0           1
 AtZEff=  -0.0000000  -0.0000000  -0.0000000  -0.0000000  -0.0000000
 NQMom=    2.0440000   0.0000000   0.0000000   0.0000000   0.0000000
 NMagM=    0.4037610   0.0000000   0.0000000   0.0000000   2.7928460
 AtZNuc=   7.0000000   8.0000000   8.0000000   8.0000000   1.0000000
 Leave Link  101 at Sat Aug  1 14:44:59 2020, MaxMem=   524288000 cpu:               0.6 elap:               0.1
 (Enter /home/ubuntu/g16/l103.exe)

 GradGradGradGradGradGradGradGradGradGradGradGradGradGradGradGradGradGrad
 Berny optimization.
 Initialization pass.
                           ----------------------------
                           !    Initial Parameters    !
                           ! (Angstroms and Degrees)  !
 --------------------------                            --------------------------
 ! Name  Definition              Value          Derivative Info.                !
 --------------------------------------------------------------------------------
 ! R1    R(1,2)                  1.1993         estimate D2E/DX2                !
 ! R2    R(1,3)                  1.1994         estimate D2E/DX2                !
 ! R3    R(1,4)                  1.36           estimate D2E/DX2                !
 ! R4    R(4,5)                  0.96           estimate D2E/DX2                !
 ! A1    A(2,1,3)              123.2157         estimate D2E/DX2                !
 ! A2    A(2,1,4)              118.3966         estimate D2E/DX2                !
 ! A3    A(3,1,4)              118.3876         estimate D2E/DX2                !
 ! A4    A(1,4,5)              109.4702         estimate D2E/DX2                !
 ! D1    D(2,1,3,4)            180.0            estimate D2E/DX2                !
 ! D2    D(2,1,4,5)              0.0            estimate D2E/DX2                !
 ! D3    D(3,1,4,5)            180.0            estimate D2E/DX2                !
 --------------------------------------------------------------------------------
 Trust Radius=3.00D-01 FncErr=1.00D-07 GrdErr=1.00D-06 EigMax=2.50D+02 EigMin=1.00D-04
 Number of steps in this run=    100 maximum allowed number of steps=    100.
 GradGradGradGradGradGradGradGradGradGradGradGradGradGradGradGradGradGrad

 Leave Link  103 at Sat Aug  1 14:44:59 2020, MaxMem=   524288000 cpu:               0.1 elap:               0.0
 (Enter /home/ubuntu/g16/l202.exe)
                          Input orientation:                          
 ---------------------------------------------------------------------
 Center     Atomic      Atomic             Coordinates (Angstroms)
 Number     Number       Type             X           Y           Z
 ---------------------------------------------------------------------
      1          7           0       -0.804400   -0.560200    0.000000
      2          8           0        0.394900   -0.560200    0.000000
      3          8           0       -1.461400    0.443200    0.000000
      4          8           0       -1.451200   -1.756600    0.000000
      5          1           0       -0.807200   -2.468500    0.000000
 ---------------------------------------------------------------------
                    Distance matrix (angstroms):
                    1          2          3          4          5
     1  N    0.000000
     2  O    1.199300   0.000000
     3  O    1.199358   2.110133   0.000000
     4  O    1.360045   2.199877   2.199824   0.000000
     5  H    1.908302   2.255361   2.984288   0.959968   0.000000
 Stoichiometry    HNO3
 Framework group  CS[SG(HNO3)]
 Deg. of freedom     7
 Full point group                 CS      NOp   2
 Largest Abelian subgroup         CS      NOp   2
 Largest concise Abelian subgroup C1      NOp   1
                         Standard orientation:                         
 ---------------------------------------------------------------------
 Center     Atomic      Atomic             Coordinates (Angstroms)
 Number     Number       Type             X           Y           Z
 ---------------------------------------------------------------------
      1          7           0        0.000000    0.111023    0.000000
      2          8           0        1.165394    0.394177    0.000000
      3          8           0       -0.875328    0.930939    0.000000
      4          8           0       -0.346045   -1.204262    0.000000
      5          1           0        0.447828   -1.743988    0.000000
 ---------------------------------------------------------------------
 Rotational constants (GHZ):          14.0045611          11.8243810           6.4112291
 Leave Link  202 at Sat Aug  1 14:44:59 2020, MaxMem=   524288000 cpu:               0.1 elap:               0.0
 (Enter /home/ubuntu/g16/l301.exe)
 Standard basis: Aug-CC-pVDZ (5D, 7F)
 Ernie: Thresh=  0.10000D-02 Tol=  0.10000D-05 Strict=F.
 Ernie:  8 primitive shells out of 107 were deleted.
 There are    79 symmetry adapted cartesian basis functions of A'  symmetry.
 There are    30 symmetry adapted cartesian basis functions of A"  symmetry.
 There are    71 symmetry adapted basis functions of A'  symmetry.
 There are    30 symmetry adapted basis functions of A"  symmetry.
   101 basis functions,   183 primitive gaussians,   109 cartesian basis functions
    16 alpha electrons       16 beta electrons
       nuclear repulsion energy       127.6935642403 Hartrees.
 IExCor=  402 DFT=T Ex+Corr=B3LYP ExCW=0 ScaHFX=  0.200000
 ScaDFX=  0.800000  0.720000  1.000000  0.810000 ScalE2=  1.000000  1.000000
 IRadAn=      5 IRanWt=     -1 IRanGd=            0 ICorTp=0 IEmpDi=  4
 NAtoms=    5 NActive=    5 NUniq=    5 SFac= 1.00D+00 NAtFMM=   60 NAOKFM=F Big=F
 Integral buffers will be    131072 words long.
 Raffenetti 2 integral format.
 Two-electron integral symmetry is turned on.
 Leave Link  301 at Sat Aug  1 14:44:59 2020, MaxMem=   524288000 cpu:               0.2 elap:               0.0
 (Enter /home/ubuntu/g16/l302.exe)
 NPDir=0 NMtPBC=     1 NCelOv=     1 NCel=       1 NClECP=     1 NCelD=      1
         NCelK=      1 NCelE2=     1 NClLst=     1 CellRange=     0.0.
 One-electron integrals computed using PRISM.
 One-electron integral symmetry used in STVInt
 NBasis=   101 RedAO= T EigKep=  3.94D-04  NBF=    71    30
 NBsUse=   101 1.00D-06 EigRej= -1.00D+00 NBFU=    71    30
 Precomputing XC quadrature grid using
 IXCGrd= 4 IRadAn=           5 IRanWt=          -1 IRanGd=           0 AccXCQ= 0.00D+00.
 Generated NRdTot=       0 NPtTot=           0 NUsed=           0 NTot=          32
 NSgBfM=   109   109   109   109   109 MxSgAt=     5 MxSgA2=     5.
 Leave Link  302 at Sat Aug  1 14:44:59 2020, MaxMem=   524288000 cpu:               1.1 elap:               0.2
 (Enter /home/ubuntu/g16/l303.exe)
 DipDrv:  MaxL=1.
 Leave Link  303 at Sat Aug  1 14:45:00 2020, MaxMem=   524288000 cpu:               0.2 elap:               0.0
 (Enter /home/ubuntu/g16/l401.exe)
 ExpMin= 2.97D-02 ExpMax= 1.17D+04 ExpMxC= 4.01D+02 IAcc=3 IRadAn=         5 AccDes= 0.00D+00
 Harris functional with IExCor=  402 and IRadAn=       5 diagonalized for initial guess.
 HarFok:  IExCor=  402 AccDes= 0.00D+00 IRadAn=         5 IDoV= 1 UseB2=F ITyADJ=14
 ICtDFT=  3500011 ScaDFX=  1.000000  1.000000  1.000000  1.000000
 FoFCou: FMM=F IPFlag=           0 FMFlag=      100000 FMFlg1=           0
         NFxFlg=           0 DoJE=T BraDBF=F KetDBF=T FulRan=T
         wScrn=  0.000000 ICntrl=       500 IOpCl=  0 I1Cent=   200000004 NGrid=           0
         NMat0=    1 NMatS0=      1 NMatT0=    0 NMatD0=    1 NMtDS0=    0 NMtDT0=    0
 Petite list used in FoFCou.
 Harris En= -280.984000170523    
 JPrj=0 DoOrth=F DoCkMO=F.
 Initial guess orbital symmetries:
 Alpha Orbitals:
       Occupied  (A') (A') (A') (A') (A') (A') (A') (A') (A') (A')
                 (A") (A') (A") (A') (A") (A')
       Virtual   (A") (A') (A') (A') (A') (A") (A') (A') (A') (A')
                 (A") (A") (A') (A') (A') (A') (A") (A') (A') (A")
                 (A') (A') (A') (A') (A') (A") (A') (A') (A") (A')
                 (A') (A") (A') (A') (A") (A") (A') (A') (A") (A")
                 (A') (A") (A") (A') (A') (A') (A') (A') (A') (A")
                 (A') (A") (A") (A') (A') (A') (A") (A') (A') (A')
                 (A") (A") (A') (A') (A') (A') (A') (A') (A') (A")
                 (A") (A') (A') (A") (A") (A') (A') (A') (A") (A')
                 (A") (A') (A') (A') (A')
 Beta  Orbitals:
       Occupied  (A') (A') (A') (A') (A') (A') (A') (A') (A') (A')
                 (A") (A') (A") (A') (A") (A')
       Virtual   (A") (A') (A') (A') (A') (A") (A') (A') (A') (A')
                 (A") (A") (A') (A') (A') (A') (A") (A') (A') (A")
                 (A') (A') (A') (A') (A') (A") (A') (A') (A") (A')
                 (A') (A") (A') (A') (A") (A") (A') (A') (A") (A")
                 (A') (A") (A") (A') (A') (A') (A') (A') (A') (A")
                 (A') (A") (A") (A') (A') (A') (A") (A') (A') (A')
                 (A") (A") (A') (A') (A') (A') (A') (A') (A') (A")
                 (A") (A') (A') (A") (A") (A') (A') (A') (A") (A')
                 (A") (A') (A') (A') (A')
 The electronic state of the initial guess is 1-A'.
 Initial guess <Sx>= 0.0000 <Sy>= 0.0000 <Sz>= 0.0000 <S**2>=-0.0000 S=-0.0000
 Leave Link  401 at Sat Aug  1 14:45:00 2020, MaxMem=   524288000 cpu:               2.4 elap:               0.4
 (Enter /home/ubuntu/g16/l502.exe)
 Keep R1 and R2 ints in memory in symmetry-blocked form, NReq=20515299.
 FoFCou: FMM=F IPFlag=           0 FMFlag=           0 FMFlg1=           0
         NFxFlg=           0 DoJE=F BraDBF=F KetDBF=F FulRan=T
         wScrn=  0.000000 ICntrl=       600 IOpCl=  0 I1Cent=           0 NGrid=           0
         NMat0=    1 NMatS0=   5151 NMatT0=    0 NMatD0=    1 NMtDS0=    0 NMtDT0=    0
 Petite list used in FoFCou.
 UHF open shell SCF:
 Using DIIS extrapolation, IDIIS=  1040.
 NGot=   524288000 LenX=   510582000 LenY=   510569678
 Requested convergence on RMS density matrix=1.00D-08 within 128 cycles.
 Requested convergence on MAX density matrix=1.00D-06.
 Requested convergence on             energy=1.00D-06.
 No special actions if energy rises.

 Cycle   1  Pass 1  IDiag  1:
 E= -280.737312521103    
 DIIS: error= 3.96D-02 at cycle   1 NSaved=   1.
 NSaved= 1 IEnMin= 1 EnMin= -280.737312521103     IErMin= 1 ErrMin= 3.96D-02
 ErrMax= 3.96D-02  0.00D+00 EMaxC= 1.00D-01 BMatC= 1.13D+00 BMatP= 1.13D+00
 IDIUse=3 WtCom= 6.04D-01 WtEn= 3.96D-01
 Coeff-Com:  0.100D+01
 Coeff-En:   0.100D+01
 Coeff:      0.100D+01
 Gap=     0.061 Goal=   None    Shift=    0.000
 Gap=     0.061 Goal=   None    Shift=    0.000
 GapD=    0.061 DampG=0.500 DampE=0.500 DampFc=0.2500 IDamp=-1.
 Damping current iteration by 2.50D-01
 RMSDP=9.56D-03 MaxDP=2.93D-01              OVMax= 3.62D-01

 Cycle   2  Pass 1  IDiag  1:
 E= -280.810898656825     Delta-E=       -0.073586135722 Rises=F Damp=T
 DIIS: error= 1.46D-02 at cycle   2 NSaved=   2.
 NSaved= 2 IEnMin= 2 EnMin= -280.810898656825     IErMin= 2 ErrMin= 1.46D-02
 ErrMax= 1.46D-02  0.00D+00 EMaxC= 1.00D-01 BMatC= 1.13D-01 BMatP= 1.13D+00
 IDIUse=3 WtCom= 8.54D-01 WtEn= 1.46D-01
 Coeff-Com: -0.391D+00 0.139D+01
 Coeff-En:   0.000D+00 0.100D+01
 Coeff:     -0.334D+00 0.133D+01
 Gap=     0.213 Goal=   None    Shift=    0.000
 Gap=     0.213 Goal=   None    Shift=    0.000
 RMSDP=1.67D-03 MaxDP=3.95D-02 DE=-7.36D-02 OVMax= 2.25D-01

 Cycle   3  Pass 1  IDiag  1:
 E= -280.925095030079     Delta-E=       -0.114196373254 Rises=F Damp=F
 DIIS: error= 9.91D-03 at cycle   3 NSaved=   3.
 NSaved= 3 IEnMin= 3 EnMin= -280.925095030079     IErMin= 3 ErrMin= 9.91D-03
 ErrMax= 9.91D-03  0.00D+00 EMaxC= 1.00D-01 BMatC= 4.81D-02 BMatP= 1.13D-01
 IDIUse=3 WtCom= 9.01D-01 WtEn= 9.91D-02
 Coeff-Com: -0.205D+00 0.793D+00 0.412D+00
 Coeff-En:   0.000D+00 0.000D+00 0.100D+01
 Coeff:     -0.185D+00 0.714D+00 0.471D+00
 Gap=     0.242 Goal=   None    Shift=    0.000
 Gap=     0.242 Goal=   None    Shift=    0.000
 RMSDP=1.09D-03 MaxDP=2.80D-02 DE=-1.14D-01 OVMax= 4.35D-02

 Cycle   4  Pass 1  IDiag  1:
 E= -280.931833435029     Delta-E=       -0.006738404950 Rises=F Damp=F
 DIIS: error= 4.51D-03 at cycle   4 NSaved=   4.
 NSaved= 4 IEnMin= 4 EnMin= -280.931833435029     IErMin= 4 ErrMin= 4.51D-03
 ErrMax= 4.51D-03  0.00D+00 EMaxC= 1.00D-01 BMatC= 1.13D-02 BMatP= 4.81D-02
 IDIUse=3 WtCom= 9.55D-01 WtEn= 4.51D-02
 Coeff-Com: -0.279D-01 0.139D+00 0.321D+00 0.567D+00
 Coeff-En:   0.000D+00 0.000D+00 0.238D+00 0.762D+00
 Coeff:     -0.267D-01 0.133D+00 0.318D+00 0.576D+00
 Gap=     0.240 Goal=   None    Shift=    0.000
 Gap=     0.240 Goal=   None    Shift=    0.000
 RMSDP=4.65D-04 MaxDP=1.46D-02 DE=-6.74D-03 OVMax= 2.80D-02

 Cycle   5  Pass 1  IDiag  1:
 E= -280.933531079266     Delta-E=       -0.001697644237 Rises=F Damp=F
 DIIS: error= 2.46D-03 at cycle   5 NSaved=   5.
 NSaved= 5 IEnMin= 5 EnMin= -280.933531079266     IErMin= 5 ErrMin= 2.46D-03
 ErrMax= 2.46D-03  0.00D+00 EMaxC= 1.00D-01 BMatC= 2.51D-03 BMatP= 1.13D-02
 IDIUse=3 WtCom= 9.75D-01 WtEn= 2.46D-02
 Coeff-Com:  0.194D-02 0.147D-01 0.186D+00 0.425D+00 0.373D+00
 Coeff-En:   0.000D+00 0.000D+00 0.000D+00 0.187D+00 0.813D+00
 Coeff:      0.189D-02 0.143D-01 0.181D+00 0.419D+00 0.384D+00
 Gap=     0.240 Goal=   None    Shift=    0.000
 Gap=     0.240 Goal=   None    Shift=    0.000
 RMSDP=2.03D-04 MaxDP=5.99D-03 DE=-1.70D-03 OVMax= 1.22D-02

 Cycle   6  Pass 1  IDiag  1:
 E= -280.933989865105     Delta-E=       -0.000458785839 Rises=F Damp=F
 DIIS: error= 6.42D-04 at cycle   6 NSaved=   6.
 NSaved= 6 IEnMin= 6 EnMin= -280.933989865105     IErMin= 6 ErrMin= 6.42D-04
 ErrMax= 6.42D-04  0.00D+00 EMaxC= 1.00D-01 BMatC= 1.63D-04 BMatP= 2.51D-03
 IDIUse=3 WtCom= 9.94D-01 WtEn= 6.42D-03
 Coeff-Com:  0.423D-02-0.806D-02 0.645D-01 0.173D+00 0.244D+00 0.523D+00
 Coeff-En:   0.000D+00 0.000D+00 0.000D+00 0.000D+00 0.491D-01 0.951D+00
 Coeff:      0.420D-02-0.801D-02 0.641D-01 0.172D+00 0.243D+00 0.525D+00
 Gap=     0.240 Goal=   None    Shift=    0.000
 Gap=     0.240 Goal=   None    Shift=    0.000
 RMSDP=4.95D-05 MaxDP=1.53D-03 DE=-4.59D-04 OVMax= 2.02D-03

 Cycle   7  Pass 1  IDiag  1:
 E= -280.934021141517     Delta-E=       -0.000031276412 Rises=F Damp=F
 DIIS: error= 7.35D-05 at cycle   7 NSaved=   7.
 NSaved= 7 IEnMin= 7 EnMin= -280.934021141517     IErMin= 7 ErrMin= 7.35D-05
 ErrMax= 7.35D-05  0.00D+00 EMaxC= 1.00D-01 BMatC= 3.33D-06 BMatP= 1.63D-04
 IDIUse=1 WtCom= 1.00D+00 WtEn= 0.00D+00
 Coeff-Com:  0.168D-02-0.497D-02 0.122D-01 0.353D-01 0.690D-01 0.209D+00
 Coeff-Com:  0.677D+00
 Coeff:      0.168D-02-0.497D-02 0.122D-01 0.353D-01 0.690D-01 0.209D+00
 Coeff:      0.677D+00
 Gap=     0.240 Goal=   None    Shift=    0.000
 Gap=     0.240 Goal=   None    Shift=    0.000
 RMSDP=7.53D-06 MaxDP=1.44D-04 DE=-3.13D-05 OVMax= 2.32D-04

 Cycle   8  Pass 1  IDiag  1:
 E= -280.934021819382     Delta-E=       -0.000000677864 Rises=F Damp=F
 DIIS: error= 7.41D-06 at cycle   8 NSaved=   8.
 NSaved= 8 IEnMin= 8 EnMin= -280.934021819382     IErMin= 8 ErrMin= 7.41D-06
 ErrMax= 7.41D-06  0.00D+00 EMaxC= 1.00D-01 BMatC= 3.90D-08 BMatP= 3.33D-06
 IDIUse=1 WtCom= 1.00D+00 WtEn= 0.00D+00
 Coeff-Com:  0.413D-04-0.111D-03-0.245D-03-0.231D-02-0.139D-02-0.140D-02
 Coeff-Com:  0.455D-01 0.960D+00
 Coeff:      0.413D-04-0.111D-03-0.245D-03-0.231D-02-0.139D-02-0.140D-02
 Coeff:      0.455D-01 0.960D+00
 Gap=     0.240 Goal=   None    Shift=    0.000
 Gap=     0.240 Goal=   None    Shift=    0.000
 RMSDP=1.36D-06 MaxDP=2.58D-05 DE=-6.78D-07 OVMax= 4.85D-05

 Cycle   9  Pass 1  IDiag  1:
 E= -280.934021829286     Delta-E=       -0.000000009904 Rises=F Damp=F
 DIIS: error= 1.37D-06 at cycle   9 NSaved=   9.
 NSaved= 9 IEnMin= 9 EnMin= -280.934021829286     IErMin= 9 ErrMin= 1.37D-06
 ErrMax= 1.37D-06  0.00D+00 EMaxC= 1.00D-01 BMatC= 1.68D-09 BMatP= 3.90D-08
 IDIUse=1 WtCom= 1.00D+00 WtEn= 0.00D+00
 Coeff-Com:  0.101D-04 0.515D-05-0.235D-03-0.100D-02-0.180D-02-0.403D-02
 Coeff-Com: -0.337D-02 0.182D+00 0.828D+00
 Coeff:      0.101D-04 0.515D-05-0.235D-03-0.100D-02-0.180D-02-0.403D-02
 Coeff:     -0.337D-02 0.182D+00 0.828D+00
 Gap=     0.240 Goal=   None    Shift=    0.000
 Gap=     0.240 Goal=   None    Shift=    0.000
 RMSDP=2.35D-07 MaxDP=2.87D-06 DE=-9.90D-09 OVMax= 8.21D-06

 Cycle  10  Pass 1  IDiag  1:
 E= -280.934021829679     Delta-E=       -0.000000000393 Rises=F Damp=F
 DIIS: error= 3.64D-07 at cycle  10 NSaved=  10.
 NSaved=10 IEnMin=10 EnMin= -280.934021829679     IErMin=10 ErrMin= 3.64D-07
 ErrMax= 3.64D-07  0.00D+00 EMaxC= 1.00D-01 BMatC= 9.67D-11 BMatP= 1.68D-09
 IDIUse=1 WtCom= 1.00D+00 WtEn= 0.00D+00
 Coeff-Com:  0.802D-05-0.527D-05-0.294D-04-0.778D-04-0.306D-03-0.705D-03
 Coeff-Com: -0.310D-02-0.275D-01 0.128D+00 0.904D+00
 Coeff:      0.802D-05-0.527D-05-0.294D-04-0.778D-04-0.306D-03-0.705D-03
 Coeff:     -0.310D-02-0.275D-01 0.128D+00 0.904D+00
 Gap=     0.240 Goal=   None    Shift=    0.000
 Gap=     0.240 Goal=   None    Shift=    0.000
 RMSDP=6.06D-08 MaxDP=8.41D-07 DE=-3.93D-10 OVMax= 2.17D-06

 Cycle  11  Pass 1  IDiag  1:
 E= -280.934021829702     Delta-E=       -0.000000000023 Rises=F Damp=F
 DIIS: error= 6.48D-08 at cycle  11 NSaved=  11.
 NSaved=11 IEnMin=11 EnMin= -280.934021829702     IErMin=11 ErrMin= 6.48D-08
 ErrMax= 6.48D-08  0.00D+00 EMaxC= 1.00D-01 BMatC= 2.22D-12 BMatP= 9.67D-11
 IDIUse=1 WtCom= 1.00D+00 WtEn= 0.00D+00
 Coeff-Com:  0.157D-05-0.164D-05 0.259D-05 0.910D-06 0.480D-05-0.100D-04
 Coeff-Com: -0.217D-03-0.456D-02 0.320D-02 0.844D-01 0.917D+00
 Coeff:      0.157D-05-0.164D-05 0.259D-05 0.910D-06 0.480D-05-0.100D-04
 Coeff:     -0.217D-03-0.456D-02 0.320D-02 0.844D-01 0.917D+00
 Gap=     0.240 Goal=   None    Shift=    0.000
 Gap=     0.240 Goal=   None    Shift=    0.000
 RMSDP=7.30D-09 MaxDP=1.41D-07 DE=-2.27D-11 OVMax= 3.15D-07

 SCF Done:  E(UB3LYP) =  -280.934021830     A.U. after   11 cycles
            NFock= 11  Conv=0.73D-08     -V/T= 2.0050
 <Sx>= 0.0000 <Sy>= 0.0000 <Sz>= 0.0000 <S**2>=-0.0000 S=-0.0000
 <L.S>= 0.000000000000E+00
 KE= 2.795466604318D+02 PE=-9.167996421930D+02 EE= 2.286253956912D+02
 Annihilation of the first spin contaminant:
 S**2 before annihilation    -0.0000,   after     0.0000
 Leave Link  502 at Sat Aug  1 14:45:03 2020, MaxMem=   524288000 cpu:              24.2 elap:               3.6
 (Enter /home/ubuntu/g16/l601.exe)
 Copying SCF densities to generalized density rwf, IOpCl= 1 IROHF=0.

 **********************************************************************

            Population analysis using the SCF density.

 **********************************************************************

 Orbital symmetries:
 Alpha Orbitals:
       Occupied  (A') (A') (A') (A') (A') (A') (A') (A') (A") (A')
                 (A') (A') (A") (A') (A") (A')
       Virtual   (A") (A') (A') (A') (A') (A") (A') (A') (A') (A")
                 (A') (A") (A') (A') (A') (A') (A") (A') (A") (A')
                 (A') (A') (A') (A') (A') (A") (A') (A") (A') (A')
                 (A") (A') (A') (A') (A') (A") (A") (A") (A') (A")
                 (A') (A") (A") (A') (A') (A') (A') (A') (A') (A")
                 (A') (A") (A") (A') (A') (A') (A") (A') (A') (A')
                 (A") (A") (A') (A') (A') (A') (A') (A') (A') (A")
                 (A") (A") (A') (A") (A') (A') (A') (A") (A') (A')
                 (A") (A') (A') (A') (A')
 Beta  Orbitals:
       Occupied  (A') (A') (A') (A') (A') (A') (A') (A') (A") (A')
                 (A') (A') (A") (A') (A") (A')
       Virtual   (A") (A') (A') (A') (A') (A") (A') (A') (A') (A")
                 (A') (A") (A') (A') (A') (A') (A") (A') (A") (A')
                 (A') (A') (A') (A') (A') (A") (A') (A") (A') (A')
                 (A") (A') (A') (A') (A') (A") (A") (A") (A') (A")
                 (A') (A") (A") (A') (A') (A') (A') (A') (A') (A")
                 (A') (A") (A") (A') (A') (A') (A") (A') (A') (A')
                 (A") (A") (A') (A') (A') (A') (A') (A') (A') (A")
                 (A") (A") (A') (A") (A') (A') (A') (A") (A') (A')
                 (A") (A') (A') (A') (A')
 The electronic state is 1-A'.
     Natural Orbital Coefficients:
                           1         2         3         4         5
     Eigenvalues --     2.00000   2.00000   2.00000   2.00000   2.00000
   1 1   N  1S         -0.03055  -0.12350  -0.10025  -0.14141  -0.05207
   2        2S          0.16618  -0.13662   0.05405  -0.05105   0.00244
   3        3S          0.30251  -0.05081   0.12079  -0.07684   0.04291
   4        4S          0.15314  -0.02039   0.03142  -0.01185  -0.00037
   5        5PX        -0.17459  -0.03335  -0.07168  -0.18581  -0.03526
   6        5PY        -0.18676  -0.00860  -0.22494   0.05164   0.02978
   7        5PZ         0.00000   0.00000   0.00000   0.00000   0.00000
   8        6PX        -0.01167  -0.05799  -0.06281  -0.02881  -0.10474
   9        6PY        -0.08105   0.01507  -0.07690   0.09447  -0.01182
  10        6PZ         0.00000   0.00000   0.00000   0.00000   0.00000
  11        7PX         0.00228  -0.01224   0.00349  -0.02560  -0.03437
  12        7PY        -0.01150   0.02140  -0.03722  -0.01056   0.01941
  13        7PZ         0.00000   0.00000   0.00000   0.00000   0.00000
  14        8D 0       -0.00113   0.00878  -0.00195   0.00202  -0.00057
  15        8D+1        0.00000   0.00000   0.00000   0.00000   0.00000
  16        8D-1        0.00000   0.00000   0.00000   0.00000   0.00000
  17        8D+2        0.00142   0.02036  -0.02098  -0.03155   0.03265
  18        8D-2       -0.03344   0.01406   0.04425  -0.00810  -0.00999
  19        9D 0       -0.01822   0.00192  -0.00472   0.00089  -0.00559
  20        9D+1        0.00000   0.00000   0.00000   0.00000   0.00000
  21        9D-1        0.00000   0.00000   0.00000   0.00000   0.00000
  22        9D+2        0.00174  -0.00001  -0.02925   0.03106  -0.01615
  23        9D-2        0.00633  -0.00524   0.04451  -0.03471  -0.02222
  24 2   O  1S         -0.11011  -0.50423   0.21005   0.01541  -0.06656
  25        2S         -0.23187  -0.00535   0.06177   0.01621   0.28389
  26        3S         -0.30565   0.07148   0.08266   0.04245   0.38240
  27        4S         -0.06745   0.03604   0.02505   0.07890   0.10401
  28        5PX         0.07491   0.04313   0.00532   0.16166   0.14473
  29        5PY        -0.25558   0.02285   0.36904   0.26047  -0.16858
  30        5PZ         0.00000   0.00000   0.00000   0.00000   0.00000
  31        6PX         0.07553  -0.00435  -0.00339   0.06336   0.05997
  32        6PY        -0.15117   0.00620   0.22687   0.17298  -0.11780
  33        6PZ         0.00000   0.00000   0.00000   0.00000   0.00000
  34        7PX         0.00975  -0.00808  -0.01581  -0.01298   0.00095
  35        7PY        -0.02366  -0.00345   0.05739   0.02944  -0.03189
  36        7PZ         0.00000   0.00000   0.00000   0.00000   0.00000
  37        8D 0        0.00045   0.00358   0.00216   0.00459   0.00198
  38        8D+1        0.00000   0.00000   0.00000   0.00000   0.00000
  39        8D-1        0.00000   0.00000   0.00000   0.00000   0.00000
  40        8D+2       -0.00740  -0.00413   0.00084  -0.00368  -0.00391
  41        8D-2        0.00834  -0.00275  -0.00706  -0.01116   0.00386
  42        9D 0        0.00300   0.00113   0.00614  -0.00193   0.00162
  43        9D+1        0.00000   0.00000   0.00000   0.00000   0.00000
  44        9D-1        0.00000   0.00000   0.00000   0.00000   0.00000
  45        9D+2       -0.01012   0.00130   0.00191   0.00519  -0.00185
  46        9D-2        0.00717  -0.00001  -0.00124  -0.01236   0.00493
  47 3   O  1S          0.01237  -0.28999   0.05827   0.02984   0.59931
  48        2S          0.01208  -0.27202  -0.14099  -0.07907  -0.12569
  49        3S         -0.04067  -0.30229  -0.14959  -0.15681  -0.23480
  50        4S         -0.06717  -0.05808  -0.01190  -0.05657  -0.08988
  51        5PX         0.02056  -0.11360  -0.10368   0.14297   0.00508
  52        5PY        -0.17376  -0.17715   0.01336  -0.05628  -0.19815
  53        5PZ         0.00000   0.00000   0.00000   0.00000   0.00000
  54        6PX        -0.01294  -0.07631  -0.06746   0.06729  -0.02849
  55        6PY        -0.07084  -0.10854   0.01032  -0.01240  -0.09314
  56        6PZ         0.00000   0.00000   0.00000   0.00000   0.00000
  57        7PX        -0.00732  -0.01697  -0.00909   0.00003  -0.00895
  58        7PY         0.00401  -0.02120   0.00975   0.00673  -0.00806
  59        7PZ         0.00000   0.00000   0.00000   0.00000   0.00000
  60        8D 0       -0.00270   0.00062   0.00002  -0.00305  -0.00211
  61        8D+1        0.00000   0.00000   0.00000   0.00000   0.00000
  62        8D-1        0.00000   0.00000   0.00000   0.00000   0.00000
  63        8D+2       -0.00820  -0.00666  -0.00600   0.00029  -0.00410
  64        8D-2       -0.00648   0.00286   0.00270  -0.00545  -0.00346
  65        9D 0        0.00552  -0.00123   0.00390  -0.00347   0.00073
  66        9D+1        0.00000   0.00000   0.00000   0.00000   0.00000
  67        9D-1        0.00000   0.00000   0.00000   0.00000   0.00000
  68        9D+2       -0.00632  -0.00627  -0.00533  -0.00045  -0.00454
  69        9D-2       -0.00130   0.00296   0.00233   0.00008   0.00322
  70 4   O  1S          0.14927  -0.11165   0.08814  -0.11298   0.20824
  71        2S         -0.20143   0.00254  -0.07522   0.05366  -0.12414
  72        3S         -0.31833   0.02786  -0.09206   0.02209  -0.17205
  73        4S         -0.12805   0.04342  -0.07638  -0.05691  -0.00614
  74        5PX         0.20280  -0.14043  -0.01588   0.45652  -0.03972
  75        5PY         0.16641  -0.08485   0.38548  -0.06246  -0.07742
  76        5PZ         0.00000   0.00000   0.00000   0.00000   0.00000
  77        6PX         0.12412  -0.07312   0.05653   0.21333  -0.02421
  78        6PY         0.03192  -0.05918   0.13596   0.08786  -0.08011
  79        6PZ         0.00000   0.00000   0.00000   0.00000   0.00000
  80        7PX        -0.00111  -0.00052  -0.00664   0.03632   0.00188
  81        7PY        -0.01694  -0.00141   0.01589   0.01107  -0.01127
  82        7PZ         0.00000   0.00000   0.00000   0.00000   0.00000
  83        8D 0       -0.00623   0.00342  -0.00103  -0.00862   0.00159
  84        8D+1        0.00000   0.00000   0.00000   0.00000   0.00000
  85        8D-1        0.00000   0.00000   0.00000   0.00000   0.00000
  86        8D+2       -0.00306  -0.00154  -0.01146   0.01331   0.00031
  87        8D-2        0.00919  -0.00479   0.01297  -0.00633  -0.00183
  88        9D 0       -0.00348  -0.00044  -0.00932   0.00902  -0.00073
  89        9D+1        0.00000   0.00000   0.00000   0.00000   0.00000
  90        9D-1        0.00000   0.00000   0.00000   0.00000   0.00000
  91        9D+2        0.01150   0.00043   0.01726  -0.01353   0.00610
  92        9D-2        0.00231  -0.01025  -0.00591   0.03509  -0.01203
  93 5   H  1S         -0.01069  -0.04079  -0.23550   0.35819  -0.02061
  94        2S          0.03326  -0.01029  -0.02678   0.07865   0.00905
  95        3S         -0.00597   0.00264   0.00128   0.00622   0.00004
  96        4PX         0.01332   0.00157   0.02606  -0.03172   0.00718
  97        4PY         0.00168  -0.00774  -0.01194   0.02829  -0.00536
  98        4PZ         0.00000   0.00000   0.00000   0.00000   0.00000
  99        5PX         0.01000  -0.00017   0.00029  -0.00991   0.00704
 100        5PY        -0.00133  -0.00240  -0.01041   0.00254   0.00170
 101        5PZ         0.00000   0.00000   0.00000   0.00000   0.00000
                           6         7         8         9        10
     Eigenvalues --     2.00000   2.00000   2.00000   2.00000   2.00000
   1 1   N  1S          0.00000   0.32444  -0.15634   0.05023   0.01086
   2        2S          0.00000   0.26298  -0.19907   0.09439   0.02185
   3        3S          0.00000   0.08953  -0.19692   0.09217  -0.06971
   4        4S          0.00000   0.02352  -0.12814   0.02222  -0.01165
   5        5PX         0.00000   0.11283   0.20438   0.15116  -0.25717
   6        5PY         0.00000  -0.07976  -0.34372  -0.05760  -0.04617
   7        5PZ         0.49863   0.00000   0.00000   0.00000   0.00000
   8        6PX         0.00000  -0.01712   0.03162   0.02995  -0.04299
   9        6PY         0.00000   0.02541  -0.03757  -0.00803  -0.00270
  10        6PZ         0.20035   0.00000   0.00000   0.00000   0.00000
  11        7PX         0.00000   0.00016  -0.00053   0.00670  -0.02370
  12        7PY         0.00000   0.00029  -0.00325   0.01298  -0.00072
  13        7PZ         0.01881   0.00000   0.00000   0.00000   0.00000
  14        8D 0        0.00000  -0.01140   0.00391  -0.00254  -0.00385
  15        8D+1        0.00657   0.00000   0.00000   0.00000   0.00000
  16        8D-1        0.00419   0.00000   0.00000   0.00000   0.00000
  17        8D+2        0.00000  -0.00507  -0.01328   0.03357  -0.01812
  18        8D-2        0.00000   0.01449   0.00263  -0.00257  -0.01991
  19        9D 0        0.00000   0.00181   0.00276  -0.00759   0.00794
  20        9D+1        0.00438   0.00000   0.00000   0.00000   0.00000
  21        9D-1       -0.00985   0.00000   0.00000   0.00000   0.00000
  22        9D+2        0.00000   0.00027  -0.00307   0.01760   0.00226
  23        9D-2        0.00000  -0.03222  -0.03412  -0.02852   0.01343
  24 2   O  1S          0.00000  -0.53211  -0.07708   0.48128   0.18070
  25        2S          0.00000   0.15384   0.04224   0.09723   0.09922
  26        3S          0.00000   0.17312   0.09030   0.02940   0.15956
  27        4S          0.00000  -0.00459   0.06241  -0.04115   0.09934
  28        5PX         0.00000  -0.12197   0.09580  -0.14977   0.33523
  29        5PY         0.00000   0.02249  -0.18600  -0.10838  -0.20234
  30        5PZ         0.29142   0.00000   0.00000   0.00000   0.00000
  31        6PX         0.00000  -0.06302   0.02981  -0.05803   0.17046
  32        6PY         0.00000   0.02921  -0.11101  -0.03862  -0.15969
  33        6PZ         0.16626   0.00000   0.00000   0.00000   0.00000
  34        7PX         0.00000   0.00250  -0.00311   0.00115   0.01124
  35        7PY         0.00000   0.00923  -0.02144  -0.00096  -0.04659
  36        7PZ         0.00910   0.00000   0.00000   0.00000   0.00000
  37        8D 0        0.00000  -0.00561   0.00084  -0.00423   0.00556
  38        8D+1       -0.02055   0.00000   0.00000   0.00000   0.00000
  39        8D-1       -0.00546   0.00000   0.00000   0.00000   0.00000
  40        8D+2        0.00000   0.00880  -0.00849   0.00561  -0.01223
  41        8D-2        0.00000   0.00560   0.01074   0.00768   0.00195
  42        9D 0        0.00000  -0.00245  -0.00232   0.00046  -0.00179
  43        9D+1       -0.01996   0.00000   0.00000   0.00000   0.00000
  44        9D-1       -0.00593   0.00000   0.00000   0.00000   0.00000
  45        9D+2        0.00000   0.00778  -0.00650   0.00081  -0.00888
  46        9D-2        0.00000   0.00147   0.00865  -0.00073   0.00845
  47 3   O  1S          0.00000   0.01045   0.09310  -0.45847  -0.39660
  48        2S          0.00000  -0.05772  -0.01392  -0.06903   0.01416
  49        3S          0.00000  -0.12105   0.06827  -0.07553   0.03483
  50        4S          0.00000  -0.03643   0.11364  -0.00615  -0.04088
  51        5PX         0.00000   0.04908  -0.19067  -0.22637   0.28904
  52        5PY         0.00000   0.01739   0.32063  -0.19410   0.06144
  53        5PZ         0.20364   0.00000   0.00000   0.00000   0.00000
  54        6PX         0.00000   0.01222  -0.06160  -0.14423   0.18758
  55        6PY         0.00000   0.02615   0.15045  -0.12710   0.05916
  56        6PZ         0.11260   0.00000   0.00000   0.00000   0.00000
  57        7PX         0.00000  -0.00236   0.02391  -0.02748   0.03272
  58        7PY         0.00000   0.01093   0.00434  -0.03244   0.03548
  59        7PZ        -0.00448   0.00000   0.00000   0.00000   0.00000
  60        8D 0        0.00000  -0.00197   0.01176   0.00146  -0.00392
  61        8D+1        0.01352   0.00000   0.00000   0.00000   0.00000
  62        8D-1       -0.01281   0.00000   0.00000   0.00000   0.00000
  63        8D+2        0.00000   0.00191  -0.00007  -0.00792   0.00323
  64        8D-2        0.00000  -0.00305   0.01935   0.00189  -0.00689
  65        9D 0        0.00000  -0.00276   0.00063  -0.00147  -0.00121
  66        9D+1        0.01461   0.00000   0.00000   0.00000   0.00000
  67        9D-1       -0.01299   0.00000   0.00000   0.00000   0.00000
  68        9D+2        0.00000   0.00062  -0.00085  -0.00849   0.00645
  69        9D-2        0.00000  -0.00144   0.00434  -0.00102  -0.00492
  70 4   O  1S          0.00000  -0.13495  -0.09462   0.12985  -0.16771
  71        2S          0.00000   0.15814   0.08732  -0.01728   0.12029
  72        3S          0.00000   0.17738   0.11053  -0.06591   0.16896
  73        4S          0.00000   0.01072   0.03960   0.00777  -0.01122
  74        5PX         0.00000   0.08035   0.12946   0.13049  -0.14671
  75        5PY         0.00000   0.11523   0.10913  -0.09973   0.11092
  76        5PZ         0.17783   0.00000   0.00000   0.00000   0.00000
  77        6PX         0.00000   0.03122   0.06155   0.04781  -0.07563
  78        6PY         0.00000   0.09951   0.11061  -0.03846   0.06314
  79        6PZ         0.09988   0.00000   0.00000   0.00000   0.00000
  80        7PX         0.00000   0.00155   0.00805   0.01392  -0.02342
  81        7PY         0.00000   0.00659   0.01451  -0.00458  -0.00892
  82        7PZ        -0.00066   0.00000   0.00000   0.00000   0.00000
  83        8D 0        0.00000  -0.00666  -0.00423  -0.00458  -0.00003
  84        8D+1        0.00631   0.00000   0.00000   0.00000   0.00000
  85        8D-1        0.01108   0.00000   0.00000   0.00000   0.00000
  86        8D+2        0.00000  -0.00399   0.00283   0.00381  -0.00870
  87        8D-2        0.00000   0.00605   0.00744  -0.00104   0.00207
  88        9D 0        0.00000  -0.00135  -0.00437   0.00293  -0.00587
  89        9D+1        0.00831   0.00000   0.00000   0.00000   0.00000
  90        9D-1        0.01147   0.00000   0.00000   0.00000   0.00000
  91        9D+2        0.00000  -0.01262  -0.00598  -0.00206  -0.01191
  92        9D-2        0.00000   0.01648   0.01567   0.00926  -0.00220
  93 5   H  1S          0.00000   0.05644   0.05490   0.13549  -0.09121
  94        2S          0.00000  -0.01018  -0.00927   0.01102   0.00887
  95        3S          0.00000  -0.00099   0.00311  -0.00031  -0.00301
  96        4PX         0.00000  -0.00851  -0.00484  -0.01136   0.00783
  97        4PY         0.00000   0.00872   0.01084   0.00555   0.00022
  98        4PZ         0.00616   0.00000   0.00000   0.00000   0.00000
  99        5PX         0.00000  -0.00159  -0.00334   0.00319  -0.00181
 100        5PY         0.00000  -0.00864  -0.00150  -0.01185   0.01820
 101        5PZ         0.00161   0.00000   0.00000   0.00000   0.00000
                          11        12        13        14        15
     Eigenvalues --     2.00000   2.00000   2.00000   2.00000   2.00000
   1 1   N  1S         -0.05660   0.72680   0.00000   0.56225   0.00000
   2        2S         -0.02279  -0.19023   0.00000  -0.10441   0.00000
   3        3S         -0.17007  -0.20179   0.00000  -0.01836   0.00000
   4        4S         -0.07706  -0.09255   0.00000  -0.00833   0.00000
   5        5PX        -0.09279  -0.17372   0.00000   0.11673   0.00000
   6        5PY        -0.03028  -0.11201   0.00000   0.05182   0.00000
   7        5PZ         0.00000   0.00000   0.02737   0.00000   0.08296
   8        6PX        -0.01597  -0.01373   0.00000  -0.00700   0.00000
   9        6PY        -0.06222   0.01052   0.00000  -0.02276   0.00000
  10        6PZ         0.00000   0.00000   0.01425   0.00000   0.03909
  11        7PX         0.00379  -0.00129   0.00000  -0.01444   0.00000
  12        7PY        -0.02543  -0.00215   0.00000   0.00100   0.00000
  13        7PZ         0.00000   0.00000   0.00998   0.00000   0.00444
  14        8D 0       -0.00411   0.00533   0.00000   0.00669   0.00000
  15        8D+1        0.00000   0.00000   0.03679   0.00000  -0.03637
  16        8D-1        0.00000   0.00000   0.02187   0.00000   0.03215
  17        8D+2        0.02452   0.00197   0.00000  -0.00826   0.00000
  18        8D-2       -0.00555   0.00380   0.00000  -0.00465   0.00000
  19        9D 0        0.01135   0.00956   0.00000  -0.00045   0.00000
  20        9D+1        0.00000   0.00000   0.01379   0.00000  -0.01429
  21        9D-1        0.00000   0.00000   0.00234   0.00000   0.00841
  22        9D+2        0.00366   0.02214   0.00000  -0.03035   0.00000
  23        9D-2        0.01965   0.00613   0.00000   0.00593   0.00000
  24 2   O  1S         -0.22219   0.08706   0.00000   0.07275   0.00000
  25        2S          0.16119  -0.06865   0.00000   0.01665   0.00000
  26        3S          0.25271  -0.01612   0.00000   0.03373   0.00000
  27        4S          0.07332   0.06374   0.00000   0.02279   0.00000
  28        5PX         0.08395   0.17528   0.00000   0.01825   0.00000
  29        5PY         0.07480   0.08654   0.00000  -0.03183   0.00000
  30        5PZ         0.00000   0.00000   0.40750   0.00000  -0.26015
  31        6PX         0.00792   0.06057   0.00000   0.01020   0.00000
  32        6PY         0.04104   0.04636   0.00000  -0.03034   0.00000
  33        6PZ         0.00000   0.00000   0.26826   0.00000  -0.17745
  34        7PX        -0.01158  -0.01426   0.00000   0.00165   0.00000
  35        7PY         0.01742   0.00773   0.00000  -0.00885   0.00000
  36        7PZ         0.00000   0.00000   0.05308   0.00000  -0.04355
  37        8D 0        0.00315   0.00801   0.00000  -0.00017   0.00000
  38        8D+1        0.00000   0.00000  -0.01227   0.00000   0.00500
  39        8D-1        0.00000   0.00000  -0.00294   0.00000   0.00273
  40        8D+2       -0.00273  -0.01159   0.00000  -0.00066   0.00000
  41        8D-2       -0.00279  -0.00631   0.00000   0.00013   0.00000
  42        9D 0       -0.00244   0.00014   0.00000   0.00133   0.00000
  43        9D+1        0.00000   0.00000  -0.01404   0.00000   0.00665
  44        9D-1        0.00000   0.00000  -0.00461   0.00000   0.00651
  45        9D+2        0.00387  -0.00400   0.00000  -0.00407   0.00000
  46        9D-2        0.00073  -0.00249   0.00000   0.00163   0.00000
  47 3   O  1S         -0.20118   0.14053   0.00000  -0.06512   0.00000
  48        2S          0.27635   0.02075   0.00000  -0.10918   0.00000
  49        3S          0.38636   0.06192   0.00000  -0.09520   0.00000
  50        4S          0.10152   0.05141   0.00000  -0.00995   0.00000
  51        5PX        -0.25873  -0.20332   0.00000   0.10890   0.00000
  52        5PY        -0.14912  -0.09859   0.00000   0.17472   0.00000
  53        5PZ         0.00000   0.00000  -0.13094   0.00000   0.50721
  54        6PX        -0.12920  -0.10318   0.00000   0.07180   0.00000
  55        6PY        -0.12326  -0.07910   0.00000   0.09944   0.00000
  56        6PZ         0.00000   0.00000  -0.08607   0.00000   0.32808
  57        7PX        -0.01937  -0.01066   0.00000   0.01953   0.00000
  58        7PY        -0.02529  -0.02163   0.00000   0.01415   0.00000
  59        7PZ         0.00000   0.00000  -0.02209   0.00000   0.06453
  60        8D 0        0.00059   0.00301   0.00000   0.00319   0.00000
  61        8D+1        0.00000   0.00000  -0.00145   0.00000   0.01224
  62        8D-1        0.00000   0.00000   0.00317   0.00000  -0.01195
  63        8D+2       -0.01039  -0.01042   0.00000   0.00818   0.00000
  64        8D-2       -0.00079   0.00488   0.00000   0.00593   0.00000
  65        9D 0       -0.00292  -0.00083   0.00000   0.00271   0.00000
  66        9D+1        0.00000   0.00000  -0.00053   0.00000   0.01379
  67        9D-1        0.00000   0.00000   0.00433   0.00000  -0.01359
  68        9D+2       -0.00860  -0.00904   0.00000   0.00634   0.00000
  69        9D-2       -0.00603   0.00293   0.00000   0.00401   0.00000
  70 4   O  1S         -0.47235   0.14362   0.00000  -0.29462   0.00000
  71        2S         -0.10765   0.13268   0.00000  -0.25680   0.00000
  72        3S         -0.09896   0.16002   0.00000  -0.27850   0.00000
  73        4S         -0.03967   0.02391   0.00000  -0.02053   0.00000
  74        5PX         0.03709  -0.01999   0.00000   0.07030   0.00000
  75        5PY        -0.00013  -0.03091   0.00000  -0.00915   0.00000
  76        5PZ         0.00000   0.00000  -0.51087   0.00000  -0.33571
  77        6PX         0.03673  -0.01641   0.00000   0.05850   0.00000
  78        6PY         0.00350   0.02678   0.00000  -0.04285   0.00000
  79        6PZ         0.00000   0.00000  -0.34021   0.00000  -0.22334
  80        7PX         0.00080   0.00196   0.00000   0.00966   0.00000
  81        7PY        -0.00073   0.00560   0.00000   0.00274   0.00000
  82        7PZ         0.00000   0.00000  -0.06167   0.00000  -0.03554
  83        8D 0       -0.00082  -0.00077   0.00000   0.00482   0.00000
  84        8D+1        0.00000   0.00000  -0.01018   0.00000  -0.00837
  85        8D-1        0.00000   0.00000  -0.00529   0.00000  -0.00154
  86        8D+2       -0.00028  -0.00042   0.00000   0.00705   0.00000
  87        8D-2       -0.00111  -0.00550   0.00000   0.00225   0.00000
  88        9D 0       -0.00568  -0.00108   0.00000  -0.00060   0.00000
  89        9D+1        0.00000   0.00000  -0.01420   0.00000  -0.01278
  90        9D-1        0.00000   0.00000  -0.00930   0.00000  -0.00554
  91        9D+2        0.00214  -0.00846   0.00000   0.01915   0.00000
  92        9D-2        0.00135   0.00554   0.00000  -0.01111   0.00000
  93 5   H  1S          0.00132   0.05883   0.00000  -0.05613   0.00000
  94        2S          0.02765   0.02288   0.00000  -0.00493   0.00000
  95        3S          0.00139   0.00488   0.00000   0.00138   0.00000
  96        4PX         0.00325  -0.00935   0.00000   0.01263   0.00000
  97        4PY        -0.00249   0.00404   0.00000  -0.00472   0.00000
  98        4PZ         0.00000   0.00000  -0.01957   0.00000  -0.01453
  99        5PX        -0.00127  -0.01022   0.00000   0.00695   0.00000
 100        5PY        -0.00014   0.00448   0.00000   0.00252   0.00000
 101        5PZ         0.00000   0.00000  -0.00934   0.00000  -0.01788
                          16        17        18        19        20
     Eigenvalues --     2.00000   0.00000   0.00000   0.00000   0.00000
   1 1   N  1S          0.07376  -0.03021  -0.06686   0.09015  -0.21210
   2        2S         -0.08230  -0.27881  -0.59179   0.86006  -1.21472
   3        3S         -0.13545   0.66377   6.23920  -3.46049  23.30003
   4        4S         -0.05849   3.52388  15.90599  -2.25558  12.99595
   5        5PX         0.00770  -0.03398  -0.00124  -0.02238   0.01574
   6        5PY         0.04424  -0.02718   0.29659   0.24672   0.14264
   7        5PZ         0.00000   0.00000   0.00000   0.00000   0.00000
   8        6PX        -0.01599  -0.01286   3.44815  -2.29144  -4.90148
   9        6PY        -0.06722  -2.68033   2.25612   7.31684   1.45708
  10        6PZ         0.00000   0.00000   0.00000   0.00000   0.00000
  11        7PX        -0.00969   0.63619   0.17248   2.86554  -1.92854
  12        7PY        -0.02205   6.62641  -5.20979   1.06150   2.04943
  13        7PZ         0.00000   0.00000   0.00000   0.00000   0.00000
  14        8D 0       -0.00048   0.07273  -0.06060   0.28892  -0.49219
  15        8D+1        0.00000   0.00000   0.00000   0.00000   0.00000
  16        8D-1        0.00000   0.00000   0.00000   0.00000   0.00000
  17        8D+2       -0.00435   0.01552   0.01653   0.14116   0.01942
  18        8D-2       -0.00665   0.01739   0.01473  -0.08311   0.00745
  19        9D 0        0.00636  -0.20026  -0.53854   0.13959  -2.75810
  20        9D+1        0.00000   0.00000   0.00000   0.00000   0.00000
  21        9D-1        0.00000   0.00000   0.00000   0.00000   0.00000
  22        9D+2       -0.03426   0.28007   3.09703  -0.06861  -1.69271
  23        9D-2        0.02267  -1.04316   2.80048  -0.66803  -4.72036
  24 2   O  1S         -0.33944  -0.01583   0.05383  -0.03665   0.09095
  25        2S          0.12481  -0.15591   0.56404  -0.15862   0.64809
  26        3S          0.21949   0.72390  -6.37502   1.87472  -2.12267
  27        4S          0.07507  -2.42826  -7.30663  -2.35765  -3.58570
  28        5PX         0.09168  -0.02389   0.03549  -0.21682  -0.02741
  29        5PY         0.05602  -0.07129   0.24351   0.21345  -0.10805
  30        5PZ         0.00000   0.00000   0.00000   0.00000   0.00000
  31        6PX         0.02040  -0.52033   3.31201  -0.09864   2.59867
  32        6PY         0.01670   1.63932  -0.44858  -1.49960   2.22281
  33        6PZ         0.00000   0.00000   0.00000   0.00000   0.00000
  34        7PX        -0.00478   0.25518   1.76982  -0.00875   0.77281
  35        7PY         0.00520  -2.48120   1.62173  -0.90661  -0.25442
  36        7PZ         0.00000   0.00000   0.00000   0.00000   0.00000
  37        8D 0        0.00171  -0.04644   0.10876   0.17508   0.00356
  38        8D+1        0.00000   0.00000   0.00000   0.00000   0.00000
  39        8D-1        0.00000   0.00000   0.00000   0.00000   0.00000
  40        8D+2       -0.00166  -0.13495  -0.09737  -0.06880   0.04751
  41        8D-2       -0.00322   0.02610   0.10921   0.05975  -0.12812
  42        9D 0       -0.00115  -0.02731   0.18253  -0.00768   0.95565
  43        9D+1        0.00000   0.00000   0.00000   0.00000   0.00000
  44        9D-1        0.00000   0.00000   0.00000   0.00000   0.00000
  45        9D+2        0.00130   0.34586  -0.74061  -0.51016  -0.40628
  46        9D-2        0.00228  -0.58685   0.23813   0.69256  -1.14547
  47 3   O  1S         -0.39705  -0.03103   0.00013   0.06853   0.19325
  48        2S          0.13299  -0.41377   0.16144   0.88259   1.59165
  49        3S          0.23513   1.18757   0.87214  -4.85707 -13.35331
  50        4S          0.06618  -4.82384  -2.00014   1.41295 -10.97853
  51        5PX         0.01396   0.00219  -0.16191   0.22463   0.07993
  52        5PY         0.11886   0.06465   0.22270  -0.00749  -0.12489
  53        5PZ         0.00000   0.00000   0.00000   0.00000   0.00000
  54        6PX         0.03425   0.63701   0.48126  -1.97533  -6.19100
  55        6PY         0.04324   0.44197   0.88273   0.63805   4.93206
  56        6PZ         0.00000   0.00000   0.00000   0.00000   0.00000
  57        7PX         0.01338  -0.96348   0.27391  -0.21358  -1.38192
  58        7PY         0.00658  -1.34543   1.49366  -0.33202   0.93744
  59        7PZ         0.00000   0.00000   0.00000   0.00000   0.00000
  60        8D 0        0.00176  -0.12601  -0.04160  -0.00703   0.12919
  61        8D+1        0.00000   0.00000   0.00000   0.00000   0.00000
  62        8D-1        0.00000   0.00000   0.00000   0.00000   0.00000
  63        8D+2        0.00365  -0.11824  -0.21554   0.14559   0.11749
  64        8D-2        0.00242   0.09435   0.02940   0.09288   0.02592
  65        9D 0       -0.00026  -0.13971   0.33880  -0.04102   0.70445
  66        9D+1        0.00000   0.00000   0.00000   0.00000   0.00000
  67        9D-1        0.00000   0.00000   0.00000   0.00000   0.00000
  68        9D+2        0.00185   0.24783   0.36243  -0.40712  -0.21768
  69        9D-2       -0.00330   0.05068   0.18893   0.26239   1.55933
  70 4   O  1S          0.73725   0.08194  -0.04497  -0.06627   0.07867
  71        2S         -0.14171   0.76834   0.07686  -0.54183   0.98460
  72        3S         -0.21582  -3.65919   1.22237   3.05760  -3.78648
  73        4S         -0.04798   0.20768 -11.01937   1.43432  -0.37705
  74        5PX         0.07791   0.05166   0.02367  -0.17995   0.01725
  75        5PY         0.01273  -0.06352  -0.07595  -0.13794   0.26525
  76        5PZ         0.00000   0.00000   0.00000   0.00000   0.00000
  77        6PX         0.05249  -1.76204   0.85355   0.88028  -2.19618
  78        6PY        -0.02109   0.13202   0.38777   4.27780  -4.43941
  79        6PZ         0.00000   0.00000   0.00000   0.00000   0.00000
  80        7PX         0.00456  -1.09988  -1.12593  -1.11630   1.10623
  81        7PY         0.00134  -0.36465  -1.69203   1.97296  -1.24091
  82        7PZ         0.00000   0.00000   0.00000   0.00000   0.00000
  83        8D 0        0.00209   0.09502  -0.00500  -0.01577  -0.01150
  84        8D+1        0.00000   0.00000   0.00000   0.00000   0.00000
  85        8D-1        0.00000   0.00000   0.00000   0.00000   0.00000
  86        8D+2        0.00441  -0.05352  -0.06253  -0.23851  -0.02585
  87        8D-2        0.00089   0.04110  -0.16196  -0.13134   0.05654
  88        9D 0       -0.00093   0.33402   0.08632  -0.20511   0.86686
  89        9D+1        0.00000   0.00000   0.00000   0.00000   0.00000
  90        9D-1        0.00000   0.00000   0.00000   0.00000   0.00000
  91        9D+2        0.01364  -0.25868   0.32035  -0.36996   0.67466
  92        9D-2       -0.00622  -0.17602   0.92403   1.34229  -1.60745
  93 5   H  1S         -0.02174   0.68634   0.23215   0.76942  -0.08390
  94        2S          0.01527   3.49568   2.94266   3.03216  -4.25896
  95        3S          0.00151   0.50392  -1.48003   0.74780  -0.72088
  96        4PX         0.00813  -0.50120  -0.17303  -0.29868   0.08969
  97        4PY        -0.00111   0.36427   0.11446  -0.01297   0.10500
  98        4PZ         0.00000   0.00000   0.00000   0.00000   0.00000
  99        5PX         0.00121  -0.57190  -0.11810  -1.35694   1.28208
 100        5PY         0.00540   0.70486   0.76617  -0.19091  -1.09417
 101        5PZ         0.00000   0.00000   0.00000   0.00000   0.00000
                          21        22        23        24        25
     Eigenvalues --     0.00000   0.00000   0.00000   0.00000   0.00000
   1 1   N  1S         -0.01350   0.00172  -0.01615   0.05596   0.02074
   2        2S         -0.21259   0.39646  -0.43708   0.59961   0.65832
   3        3S          2.34848  -1.59570  -1.21188  -0.58377   3.76958
   4        4S         -4.12914  -3.23012   0.69433  -1.52874   6.38306
   5        5PX         0.13177   0.21444  -0.00117  -0.30315   0.02926
   6        5PY        -0.02268  -0.01098  -0.10895   0.35468   0.22662
   7        5PZ         0.00000   0.00000   0.00000   0.00000   0.00000
   8        6PX        -2.37408   3.14580  -0.35121   0.64090   2.58948
   9        6PY         5.16074  -1.28460   3.58871  -4.52945  -0.07912
  10        6PZ         0.00000   0.00000   0.00000   0.00000   0.00000
  11        7PX        -1.09754   2.91512  -0.06192   1.66980  -0.41522
  12        7PY         0.17726   1.71846   0.28038  -2.01220  -0.69748
  13        7PZ         0.00000   0.00000   0.00000   0.00000   0.00000
  14        8D 0       -0.09820   0.05322   0.22340  -0.22912  -0.01692
  15        8D+1        0.00000   0.00000   0.00000   0.00000   0.00000
  16        8D-1        0.00000   0.00000   0.00000   0.00000   0.00000
  17        8D+2        0.09684  -0.19163   0.08772   0.01213   0.12517
  18        8D-2       -0.17983   0.02255   0.21244  -0.11767  -0.10258
  19        9D 0        0.28722   0.36074  -0.14151   0.75787  -0.49960
  20        9D+1        0.00000   0.00000   0.00000   0.00000   0.00000
  21        9D-1        0.00000   0.00000   0.00000   0.00000   0.00000
  22        9D+2       -4.25303   1.50001   2.26079  -3.93826   3.02253
  23        9D-2       -0.18487  -1.28952  -3.30125   0.14783   4.50014
  24 2   O  1S          0.01565   0.01436  -0.00656  -0.01350   0.09644
  25        2S          0.23625   0.44916  -0.31493  -0.40218   0.54471
  26        3S          2.18060  -1.75868   0.11566   3.51956  -6.56965
  27        4S          2.29609  -3.55830  -0.14148  -0.04727  -2.31299
  28        5PX        -0.23378  -0.14847   0.26198  -0.13088  -0.05191
  29        5PY         0.01777  -0.04698  -0.13722  -0.11563   0.05979
  30        5PZ         0.00000   0.00000   0.00000   0.00000   0.00000
  31        6PX         0.39574   1.15929  -0.79443  -0.73020   3.14285
  32        6PY        -2.04509   1.64562   1.63096  -0.04712  -0.70950
  33        6PZ         0.00000   0.00000   0.00000   0.00000   0.00000
  34        7PX        -0.25361   0.07437   0.13547  -0.62166   0.13639
  35        7PY         0.32311  -0.82841  -0.25275   0.94305   0.20405
  36        7PZ         0.00000   0.00000   0.00000   0.00000   0.00000
  37        8D 0       -0.15701   0.04969  -0.22636   0.14114  -0.20816
  38        8D+1        0.00000   0.00000   0.00000   0.00000   0.00000
  39        8D-1        0.00000   0.00000   0.00000   0.00000   0.00000
  40        8D+2        0.02288   0.05693  -0.04743  -0.07154  -0.11682
  41        8D-2       -0.03895  -0.11804  -0.03400   0.30522  -0.01632
  42        9D 0        0.36655  -0.13166  -0.12982  -0.17483   0.06754
  43        9D+1        0.00000   0.00000   0.00000   0.00000   0.00000
  44        9D-1        0.00000   0.00000   0.00000   0.00000   0.00000
  45        9D+2       -0.48810  -0.33622   0.55915   0.17142  -0.83538
  46        9D-2        1.02408  -0.29662  -0.38132  -0.77022   0.52785
  47 3   O  1S          0.06428  -0.03610   0.00951  -0.01248   0.03121
  48        2S          0.40535  -0.54480  -0.01051   0.07279   0.01151
  49        3S         -3.46862   1.80193  -3.19215   2.18350   2.61029
  50        4S         -2.94464   4.18976  -1.09422   2.95044  -1.53421
  51        5PX         0.11030  -0.28435   0.08267   0.12061   0.05162
  52        5PY         0.27100   0.04363  -0.00987   0.05786  -0.36123
  53        5PZ         0.00000   0.00000   0.00000   0.00000   0.00000
  54        6PX        -3.78419   2.02789  -0.36649  -0.92716   1.11049
  55        6PY        -0.89723  -0.73584   0.88843  -1.94637   1.62779
  56        6PZ         0.00000   0.00000   0.00000   0.00000   0.00000
  57        7PX        -0.33162   0.05211   0.02203  -0.48954   0.20399
  58        7PY         1.25890  -0.65404   0.26749  -0.34335   0.25830
  59        7PZ         0.00000   0.00000   0.00000   0.00000   0.00000
  60        8D 0        0.04165   0.12669  -0.09747  -0.07886  -0.29486
  61        8D+1        0.00000   0.00000   0.00000   0.00000   0.00000
  62        8D-1        0.00000   0.00000   0.00000   0.00000   0.00000
  63        8D+2        0.18351  -0.20498   0.00717   0.19316  -0.10771
  64        8D-2        0.12002   0.00400  -0.29142   0.11620  -0.06701
  65        9D 0        0.05444  -0.45138  -0.18835   0.11796   0.72044
  66        9D+1        0.00000   0.00000   0.00000   0.00000   0.00000
  67        9D-1        0.00000   0.00000   0.00000   0.00000   0.00000
  68        9D+2       -1.34090   0.77340   0.15054  -1.28815   1.06513
  69        9D-2        0.22380  -0.28232   0.16617   0.31557   0.53572
  70 4   O  1S          0.02851  -0.04391  -0.03045   0.01662   0.00427
  71        2S          0.50649   0.17545  -0.60017   0.53512  -0.01469
  72        3S         -3.08416   1.81096   3.37642  -3.63597  -0.30145
  73        4S          0.01129   5.05794  -2.97963  -1.66913  -4.40056
  74        5PX         0.06421   0.09934   0.15603  -0.09335  -0.02468
  75        5PY        -0.22821   0.08303  -0.22876  -0.09524  -0.05763
  76        5PZ         0.00000   0.00000   0.00000   0.00000   0.00000
  77        6PX        -1.44847  -0.33927  -1.22130  -1.21241   1.99752
  78        6PY         1.06316   0.15293   3.76327  -2.09393  -0.83917
  79        6PZ         0.00000   0.00000   0.00000   0.00000   0.00000
  80        7PX        -0.70336   0.18864  -0.85413   0.10046  -0.24537
  81        7PY         2.29920  -0.36506   0.76439   0.11492  -1.16130
  82        7PZ         0.00000   0.00000   0.00000   0.00000   0.00000
  83        8D 0        0.16214   0.11245  -0.16070   0.03824  -0.13970
  84        8D+1        0.00000   0.00000   0.00000   0.00000   0.00000
  85        8D-1        0.00000   0.00000   0.00000   0.00000   0.00000
  86        8D+2        0.08664   0.30409  -0.06545  -0.03873  -0.07529
  87        8D-2       -0.02168   0.12485   0.05886  -0.13847  -0.06927
  88        9D 0       -0.29634  -0.19445   0.60786  -0.23856  -0.07124
  89        9D+1        0.00000   0.00000   0.00000   0.00000   0.00000
  90        9D-1        0.00000   0.00000   0.00000   0.00000   0.00000
  91        9D+2       -0.45569  -0.67133  -0.53270   0.47089   0.81588
  92        9D-2       -0.35158  -0.86776   1.04905  -0.76711   0.71324
  93 5   H  1S          0.16785   0.05585   1.64319  -0.30474  -0.50136
  94        2S          4.96601  -3.37039   3.15945  -1.03581   1.39564
  95        3S          1.52442   0.31502   0.79479   0.24389  -0.04682
  96        4PX        -0.17207   0.50266  -0.51742   0.11240  -0.10191
  97        4PY         0.17721   0.08040  -0.04548   0.19623  -0.23076
  98        4PZ         0.00000   0.00000   0.00000   0.00000   0.00000
  99        5PX        -1.15838   0.55972  -1.21304  -0.14490  -0.33326
 100        5PY         1.60491   0.25447   0.45417  -0.33660   0.98744
 101        5PZ         0.00000   0.00000   0.00000   0.00000   0.00000
                          26        27        28        29        30
     Eigenvalues --     0.00000   0.00000   0.00000   0.00000   0.00000
   1 1   N  1S          0.00000  -0.04966  -0.00810   0.05026   0.04465
   2        2S          0.00000  -0.20258  -0.61982   0.10907  -0.05535
   3        3S          0.00000   0.56409   2.19320  -4.54193  -2.79933
   4        4S          0.00000   0.18368   6.63817  -0.64563   1.44492
   5        5PX         0.00000   0.33430  -0.00180  -0.06594   0.13484
   6        5PY         0.00000   0.00878  -0.08664  -0.08196   0.13576
   7        5PZ         0.04268   0.00000   0.00000   0.00000   0.00000
   8        6PX         0.00000   0.71526   1.61590  -0.30046  -2.73724
   9        6PY         0.00000  -2.47798   2.81576  -1.24334   2.22828
  10        6PZ        -0.43623   0.00000   0.00000   0.00000   0.00000
  11        7PX         0.00000  -1.01437  -0.14634   0.99674   1.51351
  12        7PY         0.00000  -0.36313  -3.14395   0.76635  -0.73892
  13        7PZ        -0.16371   0.00000   0.00000   0.00000   0.00000
  14        8D 0        0.00000   0.12105  -0.22160   0.10292   0.08294
  15        8D+1        0.09942   0.00000   0.00000   0.00000   0.00000
  16        8D-1        0.03600   0.00000   0.00000   0.00000   0.00000
  17        8D+2        0.00000   0.06025   0.04123   0.07392   0.23033
  18        8D-2        0.00000   0.14768   0.07021   0.11138  -0.20392
  19        9D 0        0.00000  -0.96850   0.10852   0.47156   0.55181
  20        9D+1       -1.01817   0.00000   0.00000   0.00000   0.00000
  21        9D-1        0.48342   0.00000   0.00000   0.00000   0.00000
  22        9D+2        0.00000  -1.21886   0.77004  -4.47209   3.64384
  23        9D-2        0.00000   0.46693  -2.85919  -1.08148  -2.84848
  24 2   O  1S          0.00000   0.01647   0.03654  -0.02891  -0.02462
  25        2S          0.00000  -0.03463   0.05256  -0.76437  -0.40180
  26        3S          0.00000   0.02512  -1.34020   5.31699   1.24420
  27        4S          0.00000  -1.14351  -1.84772   0.84315  -0.14156
  28        5PX         0.00000  -0.09319   0.11615  -0.10348  -0.13092
  29        5PY         0.00000  -0.34785  -0.18814   0.08203  -0.03435
  30        5PZ        -0.49291   0.00000   0.00000   0.00000   0.00000
  31        6PX         0.00000   0.67606   0.53087  -2.00248  -0.90949
  32        6PY         0.00000   0.81019   1.80151  -0.99778   1.77845
  33        6PZ         1.12871   0.00000   0.00000   0.00000   0.00000
  34        7PX         0.00000   0.40743   0.49480  -0.28874  -1.11723
  35        7PY         0.00000  -0.05317  -0.13415   0.12823   0.61236
  36        7PZ         0.28660   0.00000   0.00000   0.00000   0.00000
  37        8D 0        0.00000   0.05475  -0.10841  -0.08043  -0.10800
  38        8D+1        0.18993   0.00000   0.00000   0.00000   0.00000
  39        8D-1       -0.10339   0.00000   0.00000   0.00000   0.00000
  40        8D+2        0.00000  -0.10262   0.00280  -0.11195  -0.10124
  41        8D-2        0.00000   0.27478   0.00657   0.21590   0.24250
  42        9D 0        0.00000   0.49587  -0.18172   0.09239  -0.18091
  43        9D+1       -0.52196   0.00000   0.00000   0.00000   0.00000
  44        9D-1       -0.54008   0.00000   0.00000   0.00000   0.00000
  45        9D+2        0.00000   0.38662   0.03802   0.56474   0.74474
  46        9D-2        0.00000  -0.35294  -0.50867   0.17896  -1.01178
  47 3   O  1S          0.00000  -0.03591   0.01979  -0.02879   0.02218
  48        2S          0.00000  -0.54970   0.14802  -0.63672  -0.13448
  49        3S          0.00000   1.87688  -2.98251   2.05842  -2.88687
  50        4S          0.00000   1.07678   0.01565  -0.04272  -1.30593
  51        5PX         0.00000   0.20336   0.06300   0.31988  -0.13802
  52        5PY         0.00000   0.18915   0.24533   0.07880  -0.03918
  53        5PZ         0.43112   0.00000   0.00000   0.00000   0.00000
  54        6PX         0.00000   0.03939  -1.08338  -1.21503   0.90085
  55        6PY         0.00000  -1.43369  -0.14926  -2.64690   2.25114
  56        6PZ        -1.12315   0.00000   0.00000   0.00000   0.00000
  57        7PX         0.00000   1.35832   0.50033  -1.05923  -0.77271
  58        7PY         0.00000  -0.05861   0.89717  -0.22964   0.12931
  59        7PZ         0.38425   0.00000   0.00000   0.00000   0.00000
  60        8D 0        0.00000  -0.01984   0.14780  -0.03653  -0.02024
  61        8D+1       -0.05337   0.00000   0.00000   0.00000   0.00000
  62        8D-1        0.05508   0.00000   0.00000   0.00000   0.00000
  63        8D+2        0.00000   0.26197   0.09709   0.14264   0.01728
  64        8D-2        0.00000   0.07141   0.00309  -0.06468  -0.00067
  65        9D 0        0.00000  -0.02941  -0.39133   0.01200  -0.38246
  66        9D+1       -0.08948   0.00000   0.00000   0.00000   0.00000
  67        9D-1        0.49825   0.00000   0.00000   0.00000   0.00000
  68        9D+2        0.00000  -0.46782  -0.58600  -1.03954   1.02268
  69        9D-2        0.00000  -0.54811   0.20515  -0.16294  -0.14064
  70 4   O  1S          0.00000   0.02657  -0.00951  -0.05002  -0.11345
  71        2S          0.00000   0.84884  -0.34009  -0.67520  -0.55213
  72        3S          0.00000  -3.43043   2.88692   0.97917   5.22173
  73        4S          0.00000  -0.07351  -6.19231   4.92332  -3.84431
  74        5PX         0.00000  -0.08698   0.21549   0.21443   0.08244
  75        5PY         0.00000   0.00249  -0.18652   0.06421   0.05793
  76        5PZ         0.03310   0.00000   0.00000   0.00000   0.00000
  77        6PX         0.00000  -0.08372  -0.90594  -1.15002   1.40178
  78        6PY         0.00000  -1.20316   1.84529  -0.82199   2.39987
  79        6PZ        -0.00042   0.00000   0.00000   0.00000   0.00000
  80        7PX         0.00000   0.44704  -0.96891   0.67473  -1.91609
  81        7PY         0.00000  -0.32054  -0.94296  -1.31882   0.96326
  82        7PZ        -0.79946   0.00000   0.00000   0.00000   0.00000
  83        8D 0        0.00000   0.06737  -0.31001  -0.06444   0.02538
  84        8D+1        0.02314   0.00000   0.00000   0.00000   0.00000
  85        8D-1       -0.02710   0.00000   0.00000   0.00000   0.00000
  86        8D+2        0.00000  -0.15732   0.02106   0.18690  -0.06198
  87        8D-2        0.00000  -0.07165   0.00763  -0.13028  -0.01114
  88        9D 0        0.00000  -0.05380   0.24566  -0.37778  -0.20033
  89        9D+1        0.20900   0.00000   0.00000   0.00000   0.00000
  90        9D-1        0.27031   0.00000   0.00000   0.00000   0.00000
  91        9D+2        0.00000   0.37509  -0.20924  -0.70519  -0.13192
  92        9D-2        0.00000   0.34801  -0.29221  -1.08610   0.50705
  93 5   H  1S          0.00000   0.12780   0.01181  -0.41326  -1.21665
  94        2S          0.00000  -0.49721   1.31669  -5.38126   4.05120
  95        3S          0.00000   0.23196  -0.41253  -0.62023   0.74073
  96        4PX         0.00000  -0.12858   0.39764   0.07852   0.23674
  97        4PY         0.00000  -0.40639  -0.19705   0.13092  -0.35965
  98        4PZ        -0.19153   0.00000   0.00000   0.00000   0.00000
  99        5PX         0.00000   0.11014  -0.81279   2.10941  -0.61778
 100        5PY         0.00000   0.46454  -0.14690  -0.54558   0.43771
 101        5PZ         1.06579   0.00000   0.00000   0.00000   0.00000
                          31        32        33        34        35
     Eigenvalues --     0.00000   0.00000   0.00000   0.00000   0.00000
   1 1   N  1S          0.00000   0.00000   0.07474  -0.03361  -0.03256
   2        2S          0.00000   0.00000   0.93626   0.43773  -0.38217
   3        3S          0.00000   0.00000  -4.93038  -2.13952   1.29794
   4        4S          0.00000   0.00000  -3.82596   1.88861  -5.48344
   5        5PX         0.00000   0.00000  -0.25344  -0.16166  -0.19900
   6        5PY         0.00000   0.00000   0.26686  -0.05342   0.41719
   7        5PZ         0.19255   0.08733   0.00000   0.00000   0.00000
   8        6PX         0.00000   0.00000  -1.89290   0.38545  -0.41895
   9        6PY         0.00000   0.00000   4.20371   0.13130  -1.40389
  10        6PZ        -0.06108   0.17606   0.00000   0.00000   0.00000
  11        7PX         0.00000   0.00000  -2.87129  -4.26860  -0.21206
  12        7PY         0.00000   0.00000   1.29201  -1.05917   1.92493
  13        7PZ        -0.08721  -0.35099   0.00000   0.00000   0.00000
  14        8D 0        0.00000   0.00000   0.22123   0.39832  -0.09554
  15        8D+1       -0.07893   0.09748   0.00000   0.00000   0.00000
  16        8D-1       -0.23991   0.09206   0.00000   0.00000   0.00000
  17        8D+2        0.00000   0.00000   0.01877   0.13828  -0.20797
  18        8D-2        0.00000   0.00000  -0.18819  -0.11601   0.05677
  19        9D 0        0.00000   0.00000   0.72136   0.18357  -0.36272
  20        9D+1        2.35899   2.51969   0.00000   0.00000   0.00000
  21        9D-1       -0.90514  -0.26504   0.00000   0.00000   0.00000
  22        9D+2        0.00000   0.00000   1.96353  -0.45873  -2.56574
  23        9D-2        0.00000   0.00000  -3.47906  -0.53254   1.17314
  24 2   O  1S          0.00000   0.00000  -0.02618  -0.01083  -0.01362
  25        2S          0.00000   0.00000  -0.45823   0.02113  -0.33510
  26        3S          0.00000   0.00000   1.95725   0.51886   1.53256
  27        4S          0.00000   0.00000   6.09297   4.15985   1.94616
  28        5PX         0.00000   0.00000   0.21259   0.03822   0.15805
  29        5PY         0.00000   0.00000  -0.04365   0.08636   0.05315
  30        5PZ        -0.02060   0.20291   0.00000   0.00000   0.00000
  31        6PX         0.00000   0.00000  -2.21904  -0.85923  -0.50642
  32        6PY         0.00000   0.00000   1.09496  -0.10148  -1.53228
  33        6PZ        -1.60547  -1.65373   0.00000   0.00000   0.00000
  34        7PX         0.00000   0.00000  -1.32978   0.27662  -0.56527
  35        7PY         0.00000   0.00000  -0.60653  -0.39640  -0.28847
  36        7PZ         0.00005  -0.08074   0.00000   0.00000   0.00000
  37        8D 0        0.00000   0.00000   0.15818   0.13444  -0.04647
  38        8D+1        0.00284  -0.10155   0.00000   0.00000   0.00000
  39        8D-1       -0.05794  -0.11740   0.00000   0.00000   0.00000
  40        8D+2        0.00000   0.00000   0.24808   0.02588   0.13049
  41        8D-2        0.00000   0.00000   0.14167  -0.00357  -0.07480
  42        9D 0        0.00000   0.00000  -0.53501  -0.58595  -0.05464
  43        9D+1        0.90245   1.02901   0.00000   0.00000   0.00000
  44        9D-1        0.41117   0.47208   0.00000   0.00000   0.00000
  45        9D+2        0.00000   0.00000   0.65743   0.24982  -0.14352
  46        9D-2        0.00000   0.00000  -0.48072   0.28847   1.05992
  47 3   O  1S          0.00000   0.00000   0.02284  -0.01207   0.02927
  48        2S          0.00000   0.00000   0.15415  -0.06474  -0.12325
  49        3S          0.00000   0.00000  -3.03498   0.58118   0.64653
  50        4S          0.00000   0.00000  -5.12981  -2.56801   0.35432
  51        5PX         0.00000   0.00000  -0.24711   0.31284   0.18962
  52        5PY         0.00000   0.00000  -0.09431  -0.03422   0.16033
  53        5PZ        -0.32839   0.08925   0.00000   0.00000   0.00000
  54        6PX         0.00000   0.00000  -0.89856  -0.57626  -1.25407
  55        6PY         0.00000   0.00000   1.73376  -0.47227  -0.76540
  56        6PZ         1.73108   1.45567   0.00000   0.00000   0.00000
  57        7PX         0.00000   0.00000  -0.13251   0.79251  -0.00153
  58        7PY         0.00000   0.00000   0.83048   1.00585  -1.02042
  59        7PZ         0.29650   0.21995   0.00000   0.00000   0.00000
  60        8D 0        0.00000   0.00000   0.06130   0.01459  -0.22263
  61        8D+1       -0.28311  -0.24366   0.00000   0.00000   0.00000
  62        8D-1        0.20795   0.10946   0.00000   0.00000   0.00000
  63        8D+2        0.00000   0.00000   0.05799   0.02629   0.20751
  64        8D-2        0.00000   0.00000  -0.17091   0.16990   0.07471
  65        9D 0        0.00000   0.00000   0.13478  -0.42395   0.31811
  66        9D+1        0.44863   0.28090   0.00000   0.00000   0.00000
  67        9D-1       -0.93832  -0.68717   0.00000   0.00000   0.00000
  68        9D+2        0.00000   0.00000   0.09742  -0.30738  -0.59282
  69        9D-2        0.00000   0.00000   0.71700  -0.13364  -0.03651
  70 4   O  1S          0.00000   0.00000  -0.04918  -0.03937   0.05021
  71        2S          0.00000   0.00000  -0.61225  -0.26130   0.52579
  72        3S          0.00000   0.00000   3.97791   1.60487  -3.20419
  73        4S          0.00000   0.00000   0.11701  -2.75557   5.31143
  74        5PX         0.00000   0.00000   0.06438  -0.06695   0.02463
  75        5PY         0.00000   0.00000   0.23834  -0.04640   0.12451
  76        5PZ        -0.20946   0.33561   0.00000   0.00000   0.00000
  77        6PX         0.00000   0.00000  -0.98294  -0.23912  -0.94369
  78        6PY         0.00000   0.00000   4.26017   0.30231  -1.82408
  79        6PZ        -0.26836   0.01731   0.00000   0.00000   0.00000
  80        7PX         0.00000   0.00000  -0.22467   0.49650   0.94889
  81        7PY         0.00000   0.00000   1.09260  -0.69413   0.61207
  82        7PZ        -0.04528  -0.35916   0.00000   0.00000   0.00000
  83        8D 0        0.00000   0.00000   0.04162  -0.05380  -0.07463
  84        8D+1        0.21536  -0.16494   0.00000   0.00000   0.00000
  85        8D-1       -0.03948  -0.09475   0.00000   0.00000   0.00000
  86        8D+2        0.00000   0.00000  -0.09232   0.06715   0.10661
  87        8D-2        0.00000   0.00000  -0.00060   0.05288   0.29265
  88        9D 0        0.00000   0.00000  -0.14297   0.09808   0.50433
  89        9D+1       -0.54804  -0.79972   0.00000   0.00000   0.00000
  90        9D-1        0.44606   0.26419   0.00000   0.00000   0.00000
  91        9D+2        0.00000   0.00000  -0.96087  -0.13449  -0.09998
  92        9D-2        0.00000   0.00000   0.09019  -0.48959  -0.43277
  93 5   H  1S          0.00000   0.00000   0.91619  -0.27990   0.78596
  94        2S          0.00000   0.00000   3.27134  -0.28225  -3.04671
  95        3S          0.00000   0.00000   1.25895  -0.50790   0.35329
  96        4PX         0.00000   0.00000  -0.25772   0.11183   0.12989
  97        4PY         0.00000   0.00000   0.33373   0.16512   0.45512
  98        4PZ         0.19498   0.23050   0.00000   0.00000   0.00000
  99        5PX         0.00000   0.00000  -1.26734   0.22061   1.20425
 100        5PY         0.00000   0.00000   0.47765  -0.57696  -0.82431
 101        5PZ         0.13804   0.14682   0.00000   0.00000   0.00000
                          36        37        38        39        40
     Eigenvalues --     0.00000   0.00000   0.00000   0.00000   0.00000
   1 1   N  1S          0.00000  -0.00261   0.00000   0.00000  -0.01000
   2        2S          0.00000   0.02680   0.00000   0.00000   0.05549
   3        3S          0.00000  -0.01718   0.00000   0.00000   0.67774
   4        4S          0.00000  -2.73275   0.00000   0.00000  -0.52500
   5        5PX         0.00000   0.09253   0.00000   0.00000   0.02231
   6        5PY         0.00000  -0.15486   0.00000   0.00000   0.13118
   7        5PZ         0.04030   0.00000  -0.11609   0.58262   0.00000
   8        6PX         0.00000  -0.34305   0.00000   0.00000   0.20842
   9        6PY         0.00000   0.18091   0.00000   0.00000   0.84486
  10        6PZ         0.05172   0.00000  -0.19240  -0.70075   0.00000
  11        7PX         0.00000  -0.78312   0.00000   0.00000   0.80741
  12        7PY         0.00000   1.46583   0.00000   0.00000   0.02126
  13        7PZ         0.35746   0.00000   0.32185  -0.61037   0.00000
  14        8D 0        0.00000   0.16057   0.00000   0.00000   0.03994
  15        8D+1       -0.08387   0.00000   0.01312   0.02028   0.00000
  16        8D-1       -0.01617   0.00000   0.13314  -0.00368   0.00000
  17        8D+2        0.00000  -0.08018   0.00000   0.00000   0.24944
  18        8D-2        0.00000  -0.12725   0.00000   0.00000  -0.02454
  19        9D 0        0.00000   0.15400   0.00000   0.00000  -0.33357
  20        9D+1        0.08264   0.00000  -1.21316  -0.46856   0.00000
  21        9D-1       -0.03565   0.00000  -0.30546  -0.37623   0.00000
  22        9D+2        0.00000  -0.64614   0.00000   0.00000  -0.09659
  23        9D-2        0.00000   0.10240   0.00000   0.00000  -1.28073
  24 2   O  1S          0.00000   0.01064   0.00000   0.00000   0.00397
  25        2S          0.00000  -0.23013   0.00000   0.00000   0.16582
  26        3S          0.00000   0.60815   0.00000   0.00000  -0.40227
  27        4S          0.00000   2.20020   0.00000   0.00000   0.06985
  28        5PX         0.00000   0.12502   0.00000   0.00000  -0.25327
  29        5PY         0.00000   0.06421   0.00000   0.00000   0.11105
[...]
 Sum of electronic and zero-point Energies=           -280.913952
 Sum of electronic and thermal Energies=              -280.910428
 Sum of electronic and thermal Enthalpies=            -280.909484
 Sum of electronic and thermal Free Energies=         -280.939700
 
                     E (Thermal)             CV                S
                      KCal/Mol        Cal/Mol-Kelvin    Cal/Mol-Kelvin
 Total                   18.725             10.703             63.595
 Electronic               0.000              0.000              0.000
 Translational            0.889              2.981             38.341
 Rotational               0.889              2.981             23.318
 Vibrational             16.947              4.741              1.936
 Vibration     1          0.856              1.250              0.658
 Vibration     2          0.937              1.074              0.485
                       Q            Log10(Q)             Ln(Q)
 Total Bot       0.548095D+00         -0.261144         -0.601307
 Total V=0       0.696705D+12         11.843049         27.269628
 Vib (Bot)       0.100200D-11        -11.999132        -27.629023
 Vib (Bot)    1  0.328536D+00         -0.483418         -1.113110
 Vib (Bot)    2  0.262682D+00         -0.580570         -1.336813
 Vib (V=0)       0.127368D+01          0.105061          0.241912
 Vib (V=0)    1  0.109828D+01          0.040712          0.093743
 Vib (V=0)    2  0.106480D+01          0.027269          0.062789
 Electronic      0.100000D+01          0.000000          0.000000
 Translational   0.196526D+08          7.293420         16.793719
 Rotational      0.278335D+05          4.444568         10.233997
 
                                                       HNO3_UB3LYP-aug-cc-pVDZ
                                                             IR Spectrum
 
     3                                                                  1             11                                             
     7                                                                  7             33              8   7   6  5 5                 
     1                                                                  6             52              9   7   4  8 0                 
     1                                                                  2             25              8   5   8  0 0                 
 
     X                                                                  X             XX              X   X   X  X X                 
     X                                                                  X             XX              X            X                 
     X                                                                  X             X               X            X                 
     X                                                                  X             X               X            X                 
     X                                                                  X             X               X            X                 
                                                                        X             X               X            X                 
                                                                        X             X               X                              
                                                                        X             X               X                              
                                                                        X             X               X                              
                                                                        X             X                                              
                                                                        X             X                                              
                                                                        X             X                                              
                                                                        X             X                                              
                                                                        X             X                                              
                                                                        X             X                                              
                                                                        X                                                            
                                                                        X                                                            
                                                                        X                                                            
                                                                        X                                                            
                                                                        X                                                            
 
 ***** Axes restored to original set *****
 -------------------------------------------------------------------
 Center     Atomic                   Forces (Hartrees/Bohr)
 Number     Number              X              Y              Z
 -------------------------------------------------------------------
      1        7           0.000191010   -0.000139596   -0.000000000
      2        8          -0.000131682    0.000028024   -0.000000000
      3        8          -0.000064809    0.000125331   -0.000000000
      4        8          -0.000006786    0.000014680   -0.000000000
      5        1           0.000012267   -0.000028438   -0.000000000
 -------------------------------------------------------------------
 Cartesian Forces:  Max     0.000191010 RMS     0.000079677
 Force constants in Cartesian coordinates: 
                1             2             3             4             5 
      1  0.938163D+00
      2 -0.264949D+00  0.707790D+00
      3  0.000000D+00  0.000000D+00  0.245722D+00
      4 -0.536324D+00  0.227520D-01  0.000000D+00  0.687516D+00
      5  0.165502D-01 -0.137644D+00  0.000000D+00 -0.311655D-01  0.129225D+00
      6  0.000000D+00  0.000000D+00 -0.894117D-01  0.000000D+00  0.000000D+00
      7 -0.294359D+00  0.226352D+00  0.000000D+00 -0.809144D-01  0.782398D-01
      8  0.224890D+00 -0.435424D+00  0.000000D+00  0.575785D-01  0.382123D-02
      9  0.000000D+00  0.000000D+00 -0.917305D-01  0.000000D+00  0.000000D+00
     10 -0.136924D+00  0.303994D-01  0.000000D+00 -0.616783D-01 -0.630318D-01
     11 -0.174148D-01 -0.920159D-01  0.000000D+00 -0.498460D-01 -0.370892D-02
     12  0.000000D+00  0.000000D+00 -0.614986D-01  0.000000D+00  0.000000D+00
     13  0.294437D-01 -0.145540D-01  0.000000D+00 -0.859994D-02 -0.592711D-03
     14  0.409239D-01 -0.427057D-01  0.000000D+00  0.681004D-03  0.830679D-02
     15  0.000000D+00  0.000000D+00 -0.308171D-02  0.000000D+00  0.000000D+00
                6             7             8             9            10 
      6  0.337390D-01
      7  0.000000D+00  0.346544D+00
      8  0.000000D+00 -0.300424D+00  0.537655D+00
      9  0.317859D-01  0.000000D+00  0.000000D+00  0.363543D-01
     10  0.000000D+00  0.294785D-01  0.293450D-01  0.000000D+00  0.476240D+00
     11  0.000000D+00  0.253064D-02 -0.984994D-01  0.000000D+00 -0.177910D+00
     12  0.259705D-01  0.000000D+00  0.000000D+00  0.181487D-01  0.000000D+00
     13  0.000000D+00 -0.748818D-03 -0.113891D-01  0.000000D+00 -0.307116D+00
     14  0.000000D+00 -0.669802D-02 -0.755341D-02  0.000000D+00  0.181197D+00
     15 -0.208370D-02  0.000000D+00  0.000000D+00  0.544152D-02  0.000000D+00
               11            12            13            14            15 
     11  0.422812D+00
     12  0.000000D+00  0.263375D-01
     13  0.242640D+00  0.000000D+00  0.287021D+00
     14 -0.228588D+00  0.000000D+00 -0.216104D+00  0.270540D+00
     15  0.000000D+00 -0.895815D-02  0.000000D+00  0.000000D+00  0.868204D-02
 FormGI is forming the generalized inverse of G from B-inverse, IUseBI=4.
 Force constants in internal coordinates: 
                1             2             3             4             5 
      1  0.689149D+00
      2  0.971221D-01  0.757347D+00
      3  0.754467D-01  0.732825D-01  0.240452D+00
      4 -0.633275D-02 -0.496141D-02  0.341559D-02  0.494890D+00
      5  0.209849D-01  0.262980D-01 -0.559660D-01  0.400503D-02  0.219940D+00
      6  0.382654D-01 -0.580231D-01  0.193496D-01 -0.109990D-01 -0.113234D+00
      7 -0.592503D-01  0.317250D-01  0.366164D-01  0.699395D-02 -0.106705D+00
      8  0.105471D-01  0.137591D-01  0.422417D-01  0.148221D-01 -0.956451D-02
      9  0.000000D+00  0.000000D+00  0.000000D+00  0.000000D+00  0.000000D+00
     10  0.000000D+00  0.000000D+00  0.000000D+00  0.000000D+00  0.000000D+00
     11  0.000000D+00  0.000000D+00  0.000000D+00  0.000000D+00  0.000000D+00
                6             7             8             9            10 
      6  0.225503D+00
      7 -0.112268D+00  0.218974D+00
      8 -0.319882D-01  0.415527D-01  0.212560D+00
      9  0.000000D+00  0.000000D+00  0.000000D+00  0.556072D-01
     10  0.000000D+00  0.000000D+00  0.000000D+00 -0.215787D-01  0.152965D-01
     11  0.000000D+00  0.000000D+00  0.000000D+00  0.254717D-01 -0.296164D-02
               11 
     11  0.185905D-01
 Leave Link  716 at Sat Aug  1 14:46:04 2020, MaxMem=   524288000 cpu:               0.2 elap:               0.0
 (Enter /home/ubuntu/g16/l103.exe)

 GradGradGradGradGradGradGradGradGradGradGradGradGradGradGradGradGradGrad
 Berny optimization.
 Red2BG is reusing G-inverse.
 Internal  Forces:  Max     0.000139321 RMS     0.000060365
 Search for a local minimum.
 Step number   1 out of a maximum of    2
 All quantities printed in internal units (Hartrees-Bohrs-Radians)
 Second derivative matrix not updated -- analytic derivatives used.
 The second derivative matrix:
                          R1        R2        R3        R4        A1
           R1           0.68915
           R2           0.09712   0.75735
           R3           0.07545   0.07328   0.24045
           R4          -0.00633  -0.00496   0.00342   0.49489
           A1           0.02098   0.02630  -0.05597   0.00401   0.21994
           A2           0.03827  -0.05802   0.01935  -0.01100  -0.11323
           A3          -0.05925   0.03173   0.03662   0.00699  -0.10671
           A4           0.01055   0.01376   0.04224   0.01482  -0.00956
           D1           0.00000  -0.00000   0.00000   0.00000   0.00000
           D2           0.00000  -0.00000  -0.00000  -0.00000   0.00000
           D3           0.00000  -0.00000  -0.00000  -0.00000   0.00000
                          A2        A3        A4        D1        D2
           A2           0.22550
           A3          -0.11227   0.21897
           A4          -0.03199   0.04155   0.21256
           D1          -0.00000   0.00000  -0.00000   0.05561
           D2          -0.00000   0.00000  -0.00000  -0.02158   0.01530
           D3          -0.00000   0.00000  -0.00000   0.02547  -0.00296
                          D3
           D3           0.01859
 ITU=  0
     Eigenvalues ---    0.01382   0.07568   0.16226   0.20313   0.32586
     Eigenvalues ---    0.37474   0.49676   0.64906   0.84701
 Angle between quadratic step and forces=  22.02 degrees.
 Linear search not attempted -- first point.
 Iteration  1 RMS(Cart)=  0.00011417 RMS(Int)=  0.00000001
 Iteration  2 RMS(Cart)=  0.00000001 RMS(Int)=  0.00000000
 ITry= 1 IFail=0 DXMaxC= 2.45D-04 DCOld= 1.00D+10 DXMaxT= 3.00D-01 DXLimC= 3.00D+00 Rises=F
 ClnCor:  largest displacement from symmetrization is 5.29D-14 for atom     4.
 Variable       Old X    -DE/DX   Delta X   Delta X   Delta X     New X
                                 (Linear)    (Quad)   (Total)
    R1        2.29533  -0.00013   0.00000  -0.00023  -0.00023   2.29510
    R2        2.26714   0.00014   0.00000   0.00023   0.00023   2.26736
    R3        2.66570   0.00001   0.00000  -0.00001  -0.00001   2.66569
    R4        1.84145   0.00003   0.00000   0.00006   0.00006   1.84150
    A1        2.27505  -0.00003   0.00000  -0.00010  -0.00010   2.27495
    A2        2.02023   0.00001   0.00000   0.00011   0.00011   2.02034
    A3        1.98791   0.00002   0.00000  -0.00002  -0.00002   1.98789
    A4        1.80007   0.00002   0.00000   0.00012   0.00012   1.80019
    D1        3.14159  -0.00000   0.00000   0.00000   0.00000   3.14159
    D2        0.00000   0.00000   0.00000   0.00000   0.00000   0.00000
    D3        3.14159  -0.00000   0.00000   0.00000   0.00000   3.14159
         Item               Value     Threshold  Converged?
 Maximum Force            0.000139     0.000450     YES
 RMS     Force            0.000060     0.000300     YES
 Maximum Displacement     0.000245     0.001800     YES
 RMS     Displacement     0.000114     0.001200     YES
 Predicted change in Energy=-3.519018D-08
 Optimization completed.
    -- Stationary point found.
                           ----------------------------
                           !   Optimized Parameters   !
                           ! (Angstroms and Degrees)  !
 --------------------------                            --------------------------
 ! Name  Definition              Value          Derivative Info.                !
 --------------------------------------------------------------------------------
 ! R1    R(1,2)                  1.2146         -DE/DX =   -0.0001              !
 ! R2    R(1,3)                  1.1997         -DE/DX =    0.0001              !
 ! R3    R(1,4)                  1.4106         -DE/DX =    0.0                 !
 ! R4    R(4,5)                  0.9745         -DE/DX =    0.0                 !
 ! A1    A(2,1,3)              130.3507         -DE/DX =    0.0                 !
 ! A2    A(2,1,4)              115.7506         -DE/DX =    0.0                 !
 ! A3    A(3,1,4)              113.8987         -DE/DX =    0.0                 !
 ! A4    A(1,4,5)              103.1363         -DE/DX =    0.0                 !
 ! D1    D(2,1,3,4)            180.0            -DE/DX =    0.0                 !
 ! D2    D(2,1,4,5)              0.0            -DE/DX =    0.0                 !
 ! D3    D(3,1,4,5)            180.0            -DE/DX =    0.0                 !
 --------------------------------------------------------------------------------
 GradGradGradGradGradGradGradGradGradGradGradGradGradGradGradGradGradGrad

 Leave Link  103 at Sat Aug  1 14:46:04 2020, MaxMem=   524288000 cpu:               0.1 elap:               0.0
 (Enter /home/ubuntu/g16/l9999.exe)

 ----------------------------------------------------------------------

 Electric dipole moment (input orientation):
 (Debye = 10**-18 statcoulomb cm , SI units = C m)
                  (au)            (Debye)         (10**-30 SI)
   Tot        0.910485D+00      0.231422D+01      0.771941D+01
   x          0.139739D+00      0.355182D+00      0.118476D+01
   y         -0.899697D+00     -0.228680D+01     -0.762795D+01
   z          0.000000D+00      0.000000D+00      0.000000D+00

 Dipole polarizability, Alpha (input orientation).
 (esu units = cm**3 , SI units = C**2 m**2 J**-1)
 Alpha(0;0):
               (au)            (10**-24 esu)      (10**-40 SI)
   iso        0.258398D+02      0.382906D+01      0.426041D+01
   aniso      0.149503D+02      0.221541D+01      0.246497D+01
   xx         0.303897D+02      0.450329D+01      0.501059D+01
   yx        -0.187186D+01     -0.277381D+00     -0.308628D+00
   yy         0.310129D+02      0.459563D+01      0.511333D+01
   zx         0.000000D+00      0.000000D+00      0.000000D+00
   zy         0.000000D+00      0.000000D+00      0.000000D+00
   zz         0.161168D+02      0.238826D+01      0.265729D+01

 ----------------------------------------------------------------------

 Dipole orientation:
     7         -1.60922443         -0.24994204          0.76870063
     8          0.60269709          0.09360990          1.27654399
     8         -2.64603314         -0.41097743         -1.24102744
     8         -3.25019183         -0.50481434          2.85394299
     1         -2.12166044         -0.32953274          4.29845720

 Electric dipole moment (dipole orientation):
 (Debye = 10**-18 statcoulomb cm , SI units = C m)
                  (au)            (Debye)         (10**-30 SI)
   Tot        0.910485D+00      0.231422D+01      0.771941D+01
   x          0.000000D+00      0.000000D+00      0.000000D+00
   y          0.000000D+00      0.000000D+00      0.000000D+00
   z          0.910485D+00      0.231422D+01      0.771941D+01

 Dipole polarizability, Alpha (dipole orientation).
 (esu units = cm**3 , SI units = C**2 m**2 J**-1)
 Alpha(0;0):
               (au)            (10**-24 esu)      (10**-40 SI)
   iso        0.258398D+02      0.382906D+01      0.426041D+01
   aniso      0.149503D+02      0.221541D+01      0.246497D+01
   xx         0.295135D+02      0.437344D+01      0.486611D+01
   yx         0.208075D+01      0.308336D+00      0.343070D+00
   yy         0.164399D+02      0.243615D+01      0.271058D+01
   zx         0.166916D+01      0.247343D+00      0.275207D+00
   zy         0.259251D+00      0.384170D-01      0.427446D-01
   zz         0.315660D+02      0.467759D+01      0.520453D+01

 ----------------------------------------------------------------------
 1\1\GINC-LC06-1-2\Freq\UB3LYP\Aug-CC-pVDZ\H1N1O3\UBUNTU\01-Aug-2020\0\
 \#P Geom=AllCheck Guess=TCheck SCRF=Check GenChk UB3LYP/Aug-CC-pVDZ Fr
 eq\\HNO3_UB3LYP-aug-cc-pVDZ\\0,1\N,-0.7891332419,-0.5342229881,0.\O,0.
 4226107967,-0.6179782554,0.\O,-1.5010131143,0.4314627202,0.\O,-1.48813
 84108,-1.7594845648,0.\H,-0.7736260296,-2.4220769118,0.\\Version=ES64L
 -G16RevA.03\State=1-A'\HF=-280.9402674\S2=0.\S2-1=0.\S2A=0.\RMSD=3.357
 e-09\RMSF=7.968e-05\ZeroPoint=0.0263153\Thermal=0.0298395\Dipole=0.139
 7395,-0.8996972,0.\DipoleDeriv=2.0220571,-0.0320075,0.,-0.0739894,2.12
 56936,0.,0.,0.,0.2878272,-1.1819979,0.0512951,0.,0.0342883,-0.4901507,
 0.,0.,0.,-0.1971628,-0.6732969,0.3221095,0.,0.4056655,-0.9008234,0.,0.
 ,0.,-0.1708755,-0.3470052,-0.3139454,0.,-0.3676866,-1.0933796,0.,0.,0.
 ,-0.2658641,0.180243,-0.0274516,0.,0.0017222,0.3586601,0.,0.,0.,0.3460
 752\Polar=30.38973,-1.8718619,31.0128818,0.,0.,16.1167576\Quadrupole=-
 2.5225942,1.8863251,0.636269,-0.5835596,0.,0.\PG=CS [SG(H1N1O3)]\NImag
 =0\\0.93816314,-0.26494921,0.70778983,0.,0.,0.24572245,-0.53632359,0.0
 2275197,0.,0.68751622,0.01655020,-0.13764448,0.,-0.03116547,0.12922539
 ,0.,0.,-0.08941169,0.,0.,0.03373898,-0.29435916,0.22635187,0.,-0.08091
 439,0.07823978,0.,0.34654384,0.22488986,-0.43542366,0.,0.05757851,0.00
 382123,0.,-0.30042427,0.53765522,0.,0.,-0.09173048,0.,0.,0.03178590,0.
 ,0.,0.03635432,-0.13692408,0.03039939,0.,-0.06167830,-0.06303180,0.,0.
 02947853,0.02934502,0.,0.47623959,-0.01741475,-0.09201594,0.,-0.049846
 02,-0.00370892,0.,0.00253064,-0.09849938,0.,-0.17790976,0.42281202,0.,
 0.,-0.06149858,0.,0.,0.02597051,0.,0.,0.01814874,0.,0.,0.02633748,0.02
 944369,-0.01455402,0.,-0.00859994,-0.00059271,0.,-0.00074882,-0.011389
 12,0.,-0.30711574,0.24263989,0.,0.28702080,0.04092390,-0.04270575,0.,0
 .00068100,0.00830679,0.,-0.00669802,-0.00755341,0.,0.18119715,-0.22858
 779,0.,-0.21610404,0.27054016,0.,0.,-0.00308171,0.,0.,-0.00208370,0.,0
 .,0.00544152,0.,0.,-0.00895815,0.,0.,0.00868204\\-0.00019101,0.0001396
 0,0.,0.00013168,-0.00002802,0.,0.00006481,-0.00012533,0.,0.00000679,-0
 .00001468,0.,-0.00001227,0.00002844,0.\\\@


 EXPERIENCE IS A WONDERFUL THING.  IT ENABLES
 YOU TO RECOGNIZE A MISTAKE WHEN YOU MAKE IT AGAIN.
           - BACK OF A SUGAR PACKET
 Job cpu time:       0 days  0 hours  3 minutes  5.1 seconds.
 Elapsed time:       0 days  0 hours  0 minutes 26.8 seconds.
 File lengths (MBytes):  RWF=     16 Int=      0 D2E=      0 Chk=      2 Scr=      1
 Normal termination of Gaussian 16 at Sat Aug  1 14:46:04 2020.
