 Entering Gaussian System, Link 0=/home/ubuntu/g16/g16
 Input=HO-_UB3LYP-aug-cc-pVDZ-Opt.gjf
 Output=HO-_UB3LYP-aug-cc-pVDZ-Opt.log
 Initial command:
 /home/ubuntu/g16/l1.exe "/home/ubuntu/g16/Gau-12634.inp" -scrdir="/home/ubuntu/g16/"
 Entering Link 1 = /home/ubuntu/g16/l1.exe PID=     12636.
  
 Copyright (c) 1988,1990,1992,1993,1995,1998,2003,2009,2016,
            Gaussian, Inc.  All Rights Reserved.
  
 This is part of the Gaussian(R) 16 program.  It is based on
 the Gaussian(R) 09 system (copyright 2009, Gaussian, Inc.),
 the Gaussian(R) 03 system (copyright 2003, Gaussian, Inc.),
 the Gaussian(R) 98 system (copyright 1998, Gaussian, Inc.),
 the Gaussian(R) 94 system (copyright 1995, Gaussian, Inc.),
 the Gaussian 92(TM) system (copyright 1992, Gaussian, Inc.),
 the Gaussian 90(TM) system (copyright 1990, Gaussian, Inc.),
 the Gaussian 88(TM) system (copyright 1988, Gaussian, Inc.),
 the Gaussian 86(TM) system (copyright 1986, Carnegie Mellon
 University), and the Gaussian 82(TM) system (copyright 1983,
 Carnegie Mellon University). Gaussian is a federally registered
 trademark of Gaussian, Inc.
  
 This software contains proprietary and confidential information,
 including trade secrets, belonging to Gaussian, Inc.
  
 This software is provided under written license and may be
 used, copied, transmitted, or stored only in accord with that
 written license.
  
 The following legend is applicable only to US Government
 contracts under FAR:
  
                    RESTRICTED RIGHTS LEGEND
  
 Use, reproduction and disclosure by the US Government is
 subject to restrictions as set forth in subparagraphs (a)
 and (c) of the Commercial Computer Software - Restricted
 Rights clause in FAR 52.227-19.
  
 Gaussian, Inc.
 340 Quinnipiac St., Bldg. 40, Wallingford CT 06492
  
  
 ---------------------------------------------------------------
 Warning -- This program may not be used in any manner that
 competes with the business of Gaussian, Inc. or will provide
 assistance to any competitor of Gaussian, Inc.  The licensee
 of this program is prohibited from giving any competitor of
 Gaussian, Inc. access to this program.  By using this program,
 the user acknowledges that Gaussian, Inc. is engaged in the
 business of creating and licensing software in the field of
 computational chemistry and represents and warrants to the
 licensee that it is not a competitor of Gaussian, Inc. and that
 it will not use this program in any manner prohibited above.
 ---------------------------------------------------------------
  

 Cite this work as:
 Gaussian 16, Revision A.03,
 M. J. Frisch, G. W. Trucks, H. B. Schlegel, G. E. Scuseria, 
 M. A. Robb, J. R. Cheeseman, G. Scalmani, V. Barone, 
 G. A. Petersson, H. Nakatsuji, X. Li, M. Caricato, A. V. Marenich, 
 J. Bloino, B. G. Janesko, R. Gomperts, B. Mennucci, H. P. Hratchian, 
 J. V. Ortiz, A. F. Izmaylov, J. L. Sonnenberg, D. Williams-Young, 
 F. Ding, F. Lipparini, F. Egidi, J. Goings, B. Peng, A. Petrone, 
 T. Henderson, D. Ranasinghe, V. G. Zakrzewski, J. Gao, N. Rega, 
 G. Zheng, W. Liang, M. Hada, M. Ehara, K. Toyota, R. Fukuda, 
 J. Hasegawa, M. Ishida, T. Nakajima, Y. Honda, O. Kitao, H. Nakai, 
 T. Vreven, K. Throssell, J. A. Montgomery, Jr., J. E. Peralta, 
 F. Ogliaro, M. J. Bearpark, J. J. Heyd, E. N. Brothers, K. N. Kudin, 
 V. N. Staroverov, T. A. Keith, R. Kobayashi, J. Normand, 
 K. Raghavachari, A. P. Rendell, J. C. Burant, S. S. Iyengar, 
 J. Tomasi, M. Cossi, J. M. Millam, M. Klene, C. Adamo, R. Cammi, 
 J. W. Ochterski, R. L. Martin, K. Morokuma, O. Farkas, 
 J. B. Foresman, and D. J. Fox, Gaussian, Inc., Wallingford CT, 2016.
 
 ******************************************
 Gaussian 16:  ES64L-G16RevA.03 25-Dec-2016
                 3-Aug-2020 
 ******************************************
 %chk=HO-_UB3LYP-aug-cc-pVDZ-Opt.chk
 %mem=500MW
 %nproc=7
 Will use up to    7 processors via shared memory.
 ----------------------------------------------------------------------
 #p opt=(maxcycles=777) freq ub3lyp/aug-cc-pVDZ pop=(Bonding,AllOrbital
 s,mk,no,nboread)
 ----------------------------------------------------------------------
 1/6=777,18=20,19=15,26=3,38=1/1,3;
 2/9=110,12=2,17=6,18=5,40=1/2;
 3/5=16,7=10,11=2,25=1,30=1,71=1,74=-5,116=2/1,2,3;
 4//1;
 5/5=2,38=5/2;
 6/7=2,8=2,9=2,10=2,15=8,20=1,22=-1,27=20,28=1,31=1,40=2,96=-1/1,2,7;
 7//1,2,3,16;
 1/6=777,18=20,19=15,26=3/3(2);
 2/9=110/2;
 99//99;
 2/9=110/2;
 3/5=16,7=10,11=2,25=1,30=1,71=1,74=-5,116=2/1,2,3;
 4/5=5,16=3,69=1/1;
 5/5=2,38=5/2;
 7//1,2,3,16;
 1/6=777,18=20,19=15,26=3/3(-5);
 2/9=110/2;
 6/7=2,8=2,9=2,10=2,15=8,19=2,20=1,22=-1,27=20,28=1,31=1,40=2,96=-1/1,2,7;
 99/9=1/99;
 Leave Link    1 at Mon Aug  3 15:50:29 2020, MaxMem=   524288000 cpu:               0.3 elap:               0.0
 (Enter /home/ubuntu/g16/l101.exe)
 ----------------------
 HO-_UB3LYP-aug-cc-pVDZ
 ----------------------
 Symbolic Z-matrix:
 Charge = -1 Multiplicity = 1
 O                     4.1948    1.3849    3.3444 
 H                     4.4641    0.5846    3.3176 
 
 ITRead=  0  0
 MicOpt= -1 -1
 NAtoms=      2 NQM=        2 NQMF=       0 NMMI=      0 NMMIF=      0
                NMic=       0 NMicF=      0.
                    Isotopes and Nuclear Properties:
 (Nuclear quadrupole moments (NQMom) in fm**2, nuclear magnetic moments (NMagM)
  in nuclear magnetons)

  Atom         1           2
 IAtWgt=          16           1
 AtmWgt=  15.9949146   1.0078250
 NucSpn=           0           1
 AtZEff=  -0.0000000  -0.0000000
 NQMom=    0.0000000   0.0000000
 NMagM=    0.0000000   2.7928460
 AtZNuc=   8.0000000   1.0000000
 Leave Link  101 at Mon Aug  3 15:50:29 2020, MaxMem=   524288000 cpu:               1.2 elap:               0.2
 (Enter /home/ubuntu/g16/l103.exe)

 GradGradGradGradGradGradGradGradGradGradGradGradGradGradGradGradGradGrad
 Berny optimization.
 Initialization pass.
                           ----------------------------
                           !    Initial Parameters    !
                           ! (Angstroms and Degrees)  !
 --------------------------                            --------------------------
 ! Name  Definition              Value          Derivative Info.                !
 --------------------------------------------------------------------------------
 ! R1    R(1,2)                  0.8448         estimate D2E/DX2                !
 --------------------------------------------------------------------------------
 Trust Radius=3.00D-01 FncErr=1.00D-07 GrdErr=1.00D-06 EigMax=2.50D+02 EigMin=1.00D-04
 Number of steps in this run=    100 maximum allowed number of steps=    100.
 GradGradGradGradGradGradGradGradGradGradGradGradGradGradGradGradGradGrad

 Leave Link  103 at Mon Aug  3 15:50:29 2020, MaxMem=   524288000 cpu:               0.0 elap:               0.0
 (Enter /home/ubuntu/g16/l202.exe)
                          Input orientation:                          
 ---------------------------------------------------------------------
 Center     Atomic      Atomic             Coordinates (Angstroms)
 Number     Number       Type             X           Y           Z
 ---------------------------------------------------------------------
      1          8           0        4.194800    1.384900    3.344400
      2          1           0        4.464100    0.584600    3.317600
 ---------------------------------------------------------------------
 Stoichiometry    HO(1-)
 Framework group  C*V[C*(HO)]
 Deg. of freedom     1
 Full point group                 C*V     NOp   4
 Largest Abelian subgroup         C2V     NOp   4
 Largest concise Abelian subgroup C1      NOp   1
                         Standard orientation:                         
 ---------------------------------------------------------------------
 Center     Atomic      Atomic             Coordinates (Angstroms)
 Number     Number       Type             X           Y           Z
 ---------------------------------------------------------------------
      1          8           0        0.000000   -0.000000    0.093869
      2          1           0       -0.000000    0.000000   -0.750951
 ---------------------------------------------------------------------
 Rotational constants (GHZ):           0.0000000         746.8625266         746.8625266
 Leave Link  202 at Mon Aug  3 15:50:29 2020, MaxMem=   524288000 cpu:               0.0 elap:               0.0
 (Enter /home/ubuntu/g16/l301.exe)
 Standard basis: Aug-CC-pVDZ (5D, 7F)
 Ernie: Thresh=  0.10000D-02 Tol=  0.10000D-05 Strict=F.
 Ernie:  2 primitive shells out of 32 were deleted.
 There are    18 symmetry adapted cartesian basis functions of A1  symmetry.
 There are     2 symmetry adapted cartesian basis functions of A2  symmetry.
 There are     7 symmetry adapted cartesian basis functions of B1  symmetry.
 There are     7 symmetry adapted cartesian basis functions of B2  symmetry.
 There are    16 symmetry adapted basis functions of A1  symmetry.
 There are     2 symmetry adapted basis functions of A2  symmetry.
 There are     7 symmetry adapted basis functions of B1  symmetry.
 There are     7 symmetry adapted basis functions of B2  symmetry.
    32 basis functions,    54 primitive gaussians,    34 cartesian basis functions
     5 alpha electrons        5 beta electrons
       nuclear repulsion energy         5.0110292419 Hartrees.
 IExCor=  402 DFT=T Ex+Corr=B3LYP ExCW=0 ScaHFX=  0.200000
 ScaDFX=  0.800000  0.720000  1.000000  0.810000 ScalE2=  1.000000  1.000000
 IRadAn=      5 IRanWt=     -1 IRanGd=            0 ICorTp=0 IEmpDi=  4
 NAtoms=    2 NActive=    2 NUniq=    2 SFac= 1.00D+00 NAtFMM=   60 NAOKFM=F Big=F
 Integral buffers will be    131072 words long.
 Raffenetti 2 integral format.
 Two-electron integral symmetry is turned on.
 Leave Link  301 at Mon Aug  3 15:50:29 2020, MaxMem=   524288000 cpu:               0.2 elap:               0.0
 (Enter /home/ubuntu/g16/l302.exe)
 NPDir=0 NMtPBC=     1 NCelOv=     1 NCel=       1 NClECP=     1 NCelD=      1
         NCelK=      1 NCelE2=     1 NClLst=     1 CellRange=     0.0.
 One-electron integrals computed using PRISM.
 One-electron integral symmetry used in STVInt
 NBasis=    32 RedAO= T EigKep=  2.75D-03  NBF=    16     2     7     7
 NBsUse=    32 1.00D-06 EigRej= -1.00D+00 NBFU=    16     2     7     7
 Precomputing XC quadrature grid using
 IXCGrd= 4 IRadAn=           5 IRanWt=          -1 IRanGd=           0 AccXCQ= 0.00D+00.
 Generated NRdTot=       0 NPtTot=           0 NUsed=           0 NTot=          32
 NSgBfM=    34    34    34    34    34 MxSgAt=     2 MxSgA2=     2.
 Leave Link  302 at Mon Aug  3 15:50:29 2020, MaxMem=   524288000 cpu:               1.0 elap:               0.1
 (Enter /home/ubuntu/g16/l303.exe)
 DipDrv:  MaxL=1.
 Leave Link  303 at Mon Aug  3 15:50:29 2020, MaxMem=   524288000 cpu:               0.2 elap:               0.0
 (Enter /home/ubuntu/g16/l401.exe)
 ExpMin= 2.97D-02 ExpMax= 1.17D+04 ExpMxC= 4.01D+02 IAcc=3 IRadAn=         5 AccDes= 0.00D+00
 Harris functional with IExCor=  402 and IRadAn=       5 diagonalized for initial guess.
 HarFok:  IExCor=  402 AccDes= 0.00D+00 IRadAn=         5 IDoV= 1 UseB2=F ITyADJ=14
 ICtDFT=  3500011 ScaDFX=  1.000000  1.000000  1.000000  1.000000
 FoFCou: FMM=F IPFlag=           0 FMFlag=      100000 FMFlg1=           0
         NFxFlg=           0 DoJE=T BraDBF=F KetDBF=T FulRan=T
         wScrn=  0.000000 ICntrl=       500 IOpCl=  0 I1Cent=   200000004 NGrid=           0
         NMat0=    1 NMatS0=      1 NMatT0=    0 NMatD0=    1 NMtDS0=    0 NMtDT0=    0
 Petite list used in FoFCou.
 Harris En= -76.0679378532346    
 JPrj=0 DoOrth=F DoCkMO=F.
 Initial guess orbital symmetries:
 Alpha Orbitals:
       Occupied  (SG) (SG) (SG) (PI) (PI)
       Virtual   (SG) (SG) (PI) (PI) (SG) (SG) (PI) (PI) (SG) (SG)
                 (DLTA) (DLTA) (PI) (PI) (SG) (PI) (PI) (SG) (PI)
                 (PI) (SG) (SG) (DLTA) (DLTA) (PI) (PI) (SG)
 Beta  Orbitals:
       Occupied  (SG) (SG) (SG) (PI) (PI)
       Virtual   (SG) (SG) (PI) (PI) (SG) (SG) (PI) (PI) (SG) (SG)
                 (DLTA) (DLTA) (PI) (PI) (SG) (PI) (PI) (SG) (PI)
                 (PI) (SG) (SG) (DLTA) (DLTA) (PI) (PI) (SG)
 The electronic state of the initial guess is 1-SG.
 Initial guess <Sx>= 0.0000 <Sy>= 0.0000 <Sz>= 0.0000 <S**2>=-0.0000 S=-0.0000
 Leave Link  401 at Mon Aug  3 15:50:30 2020, MaxMem=   524288000 cpu:               1.5 elap:               0.2
 (Enter /home/ubuntu/g16/l502.exe)
 Keep R1 and R2 ints in memory in symmetry-blocked form, NReq=6180467.
 FoFCou: FMM=F IPFlag=           0 FMFlag=           0 FMFlg1=           0
         NFxFlg=           0 DoJE=F BraDBF=F KetDBF=F FulRan=T
         wScrn=  0.000000 ICntrl=       600 IOpCl=  0 I1Cent=           0 NGrid=           0
         NMat0=    1 NMatS0=    528 NMatT0=    0 NMatD0=    1 NMtDS0=    0 NMtDT0=    0
 Petite list used in FoFCou.
 UHF open shell SCF:
 Using DIIS extrapolation, IDIIS=  1040.
 NGot=   524288000 LenX=   524205684 LenY=   524204087
 Requested convergence on RMS density matrix=1.00D-08 within 128 cycles.
 Requested convergence on MAX density matrix=1.00D-06.
 Requested convergence on             energy=1.00D-06.
 No special actions if energy rises.

 Cycle   1  Pass 1  IDiag  1:
 E= -75.5644361126873    
 DIIS: error= 9.55D-02 at cycle   1 NSaved=   1.
 NSaved= 1 IEnMin= 1 EnMin= -75.5644361126873     IErMin= 1 ErrMin= 9.55D-02
 ErrMax= 9.55D-02  0.00D+00 EMaxC= 1.00D-01 BMatC= 1.02D+00 BMatP= 1.02D+00
 IDIUse=3 WtCom= 4.46D-02 WtEn= 9.55D-01
 Coeff-Com:  0.100D+01
 Coeff-En:   0.100D+01
 Coeff:      0.100D+01
 Gap=     0.024 Goal=   None    Shift=    0.000
 Gap=     0.024 Goal=   None    Shift=    0.000
 GapD=    0.024 DampG=0.250 DampE=0.500 DampFc=0.2500 IDamp=-1.
 Damping current iteration by 2.50D-01
 RMSDP=3.44D-01 MaxDP=5.05D+00              OVMax= 5.33D-01

 Cycle   2  Pass 1  IDiag  1:
 E= -75.5740511461725     Delta-E=       -0.009615033485 Rises=F Damp=T
 DIIS: error= 1.35D-02 at cycle   2 NSaved=   2.
 NSaved= 2 IEnMin= 2 EnMin= -75.5740511461725     IErMin= 2 ErrMin= 1.35D-02
 ErrMax= 1.35D-02  0.00D+00 EMaxC= 1.00D-01 BMatC= 1.83D-02 BMatP= 1.02D+00
 IDIUse=3 WtCom= 8.65D-01 WtEn= 1.35D-01
 Coeff-Com:  0.599D-02 0.994D+00
 Coeff-En:   0.481D+00 0.519D+00
 Coeff:      0.701D-01 0.930D+00
 Gap=     0.013 Goal=   None    Shift=    0.000
 Gap=     0.013 Goal=   None    Shift=    0.000
 RMSDP=8.54D-02 MaxDP=1.25D+00 DE=-9.62D-03 OVMax= 6.29D-01

 Cycle   3  Pass 1  IDiag  1:
 E= -75.7594077072131     Delta-E=       -0.185356561041 Rises=F Damp=F
 DIIS: error= 4.13D-02 at cycle   3 NSaved=   3.
 NSaved= 3 IEnMin= 3 EnMin= -75.7594077072131     IErMin= 2 ErrMin= 1.35D-02
 ErrMax= 4.13D-02  0.00D+00 EMaxC= 1.00D-01 BMatC= 1.40D-01 BMatP= 1.83D-02
 IDIUse=2 WtCom= 0.00D+00 WtEn= 1.00D+00
 Coeff-En:   0.000D+00 0.000D+00 0.100D+01
 Coeff:      0.000D+00 0.000D+00 0.100D+01
 Gap=     0.002 Goal=   None    Shift=    0.000
 Gap=     0.002 Goal=   None    Shift=    0.000
 RMSDP=1.72D-02 MaxDP=1.75D-01 DE=-1.85D-01 OVMax= 2.88D-01

 Cycle   4  Pass 1  IDiag  1:
 E= -75.5163660748064     Delta-E=        0.243041632407 Rises=F Damp=F
 DIIS: error= 1.25D-01 at cycle   4 NSaved=   4.
 NSaved= 4 IEnMin= 3 EnMin= -75.7594077072131     IErMin= 2 ErrMin= 1.35D-02
 ErrMax= 1.25D-01  0.00D+00 EMaxC= 1.00D-01 BMatC= 1.31D+00 BMatP= 1.83D-02
 IDIUse=2 WtCom= 0.00D+00 WtEn= 1.00D+00
 Coeff-En:   0.000D+00 0.000D+00 0.827D+00 0.173D+00
 Coeff:      0.000D+00 0.000D+00 0.827D+00 0.173D+00
 Gap=     0.068 Goal=   None    Shift=    0.000
 Gap=     0.068 Goal=   None    Shift=    0.000
 RMSDP=8.77D-03 MaxDP=1.12D-01 DE= 2.43D-01 OVMax= 1.50D-01

 Cycle   5  Pass 1  IDiag  1:
 E= -75.7759605184273     Delta-E=       -0.259594443621 Rises=F Damp=F
 DIIS: error= 3.45D-02 at cycle   5 NSaved=   5.
 NSaved= 5 IEnMin= 5 EnMin= -75.7759605184273     IErMin= 2 ErrMin= 1.35D-02
 ErrMax= 3.45D-02  0.00D+00 EMaxC= 1.00D-01 BMatC= 1.08D-01 BMatP= 1.83D-02
 IDIUse=2 WtCom= 0.00D+00 WtEn= 1.00D+00
 Coeff-En:   0.000D+00 0.000D+00 0.395D+00 0.000D+00 0.605D+00
 Coeff:      0.000D+00 0.000D+00 0.395D+00 0.000D+00 0.605D+00
 Gap=     0.123 Goal=   None    Shift=    0.000
 Gap=     0.123 Goal=   None    Shift=    0.000
 RMSDP=3.96D-03 MaxDP=4.38D-02 DE=-2.60D-01 OVMax= 6.95D-02

 Cycle   6  Pass 1  IDiag  1:
 E= -75.7963807512961     Delta-E=       -0.020420232869 Rises=F Damp=F
 DIIS: error= 8.93D-03 at cycle   6 NSaved=   6.
 NSaved= 6 IEnMin= 6 EnMin= -75.7963807512961     IErMin= 6 ErrMin= 8.93D-03
 ErrMax= 8.93D-03  0.00D+00 EMaxC= 1.00D-01 BMatC= 7.40D-03 BMatP= 1.83D-02
 IDIUse=3 WtCom= 9.11D-01 WtEn= 8.93D-02
 Coeff-Com: -0.128D-01-0.739D-02 0.708D-01-0.770D-02 0.252D+00 0.705D+00
 Coeff-En:   0.000D+00 0.000D+00 0.000D+00 0.000D+00 0.834D-01 0.917D+00
 Coeff:     -0.117D-01-0.673D-02 0.645D-01-0.702D-02 0.237D+00 0.724D+00
 Gap=     0.112 Goal=   None    Shift=    0.000
 Gap=     0.112 Goal=   None    Shift=    0.000
 RMSDP=1.02D-03 MaxDP=1.16D-02 DE=-2.04D-02 OVMax= 1.83D-02

 Cycle   7  Pass 1  IDiag  1:
 E= -75.7977852390451     Delta-E=       -0.001404487749 Rises=F Damp=F
 DIIS: error= 2.11D-03 at cycle   7 NSaved=   7.
 NSaved= 7 IEnMin= 7 EnMin= -75.7977852390451     IErMin= 7 ErrMin= 2.11D-03
 ErrMax= 2.11D-03  0.00D+00 EMaxC= 1.00D-01 BMatC= 3.96D-04 BMatP= 7.40D-03
 IDIUse=3 WtCom= 9.79D-01 WtEn= 2.11D-02
 Coeff-Com:  0.208D-02-0.221D-02 0.699D-02-0.642D-02 0.449D-01 0.207D+00
 Coeff-Com:  0.748D+00
 Coeff-En:   0.000D+00 0.000D+00 0.000D+00 0.000D+00 0.000D+00 0.545D-01
 Coeff-En:   0.945D+00
 Coeff:      0.204D-02-0.216D-02 0.684D-02-0.628D-02 0.439D-01 0.203D+00
 Coeff:      0.752D+00
 Gap=     0.115 Goal=   None    Shift=    0.000
 Gap=     0.115 Goal=   None    Shift=    0.000
 RMSDP=1.79D-04 MaxDP=1.93D-03 DE=-1.40D-03 OVMax= 3.17D-03

 Cycle   8  Pass 1  IDiag  1:
 E= -75.7978670744021     Delta-E=       -0.000081835357 Rises=F Damp=F
 DIIS: error= 2.00D-04 at cycle   8 NSaved=   8.
 NSaved= 8 IEnMin= 8 EnMin= -75.7978670744021     IErMin= 8 ErrMin= 2.00D-04
 ErrMax= 2.00D-04  0.00D+00 EMaxC= 1.00D-01 BMatC= 3.28D-06 BMatP= 3.96D-04
 IDIUse=3 WtCom= 9.98D-01 WtEn= 2.00D-03
 Coeff-Com:  0.513D-04-0.396D-03 0.261D-02 0.115D-03-0.616D-02-0.125D-01
 Coeff-Com:  0.733D-03 0.102D+01
 Coeff-En:   0.000D+00 0.000D+00 0.000D+00 0.000D+00 0.000D+00 0.000D+00
 Coeff-En:   0.000D+00 0.100D+01
 Coeff:      0.512D-04-0.395D-03 0.260D-02 0.114D-03-0.615D-02-0.125D-01
 Coeff:      0.731D-03 0.102D+01
 Gap=     0.115 Goal=   None    Shift=    0.000
 Gap=     0.115 Goal=   None    Shift=    0.000
 RMSDP=1.93D-05 MaxDP=1.85D-04 DE=-8.18D-05 OVMax= 3.64D-04

 Cycle   9  Pass 1  IDiag  1:
 E= -75.7978678313434     Delta-E=       -0.000000756941 Rises=F Damp=F
 DIIS: error= 2.98D-05 at cycle   9 NSaved=   9.
 NSaved= 9 IEnMin= 9 EnMin= -75.7978678313434     IErMin= 9 ErrMin= 2.98D-05
 ErrMax= 2.98D-05  0.00D+00 EMaxC= 1.00D-01 BMatC= 6.85D-08 BMatP= 3.28D-06
 IDIUse=1 WtCom= 1.00D+00 WtEn= 0.00D+00
 Coeff-Com: -0.128D-04 0.168D-04-0.761D-05-0.521D-04 0.696D-03 0.644D-03
 Coeff-Com: -0.732D-02-0.161D+00 0.117D+01
 Coeff:     -0.128D-04 0.168D-04-0.761D-05-0.521D-04 0.696D-03 0.644D-03
 Coeff:     -0.732D-02-0.161D+00 0.117D+01
 Gap=     0.115 Goal=   None    Shift=    0.000
 Gap=     0.115 Goal=   None    Shift=    0.000
 RMSDP=3.49D-06 MaxDP=3.38D-05 DE=-7.57D-07 OVMax= 6.69D-05

 Cycle  10  Pass 1  IDiag  1:
 E= -75.7978678478360     Delta-E=       -0.000000016493 Rises=F Damp=F
 DIIS: error= 1.42D-06 at cycle  10 NSaved=  10.
 NSaved=10 IEnMin=10 EnMin= -75.7978678478360     IErMin=10 ErrMin= 1.42D-06
 ErrMax= 1.42D-06  0.00D+00 EMaxC= 1.00D-01 BMatC= 1.61D-10 BMatP= 6.85D-08
 IDIUse=1 WtCom= 1.00D+00 WtEn= 0.00D+00
 Coeff-Com: -0.355D-05 0.275D-05-0.247D-04 0.351D-05 0.482D-04 0.621D-04
 Coeff-Com: -0.337D-03-0.156D-01 0.746D-01 0.941D+00
 Coeff:     -0.355D-05 0.275D-05-0.247D-04 0.351D-05 0.482D-04 0.621D-04
 Coeff:     -0.337D-03-0.156D-01 0.746D-01 0.941D+00
 Gap=     0.115 Goal=   None    Shift=    0.000
 Gap=     0.115 Goal=   None    Shift=    0.000
 RMSDP=1.24D-07 MaxDP=1.14D-06 DE=-1.65D-08 OVMax= 2.36D-06

 Cycle  11  Pass 1  IDiag  1:
 E= -75.7978678478718     Delta-E=       -0.000000000036 Rises=F Damp=F
 DIIS: error= 2.95D-07 at cycle  11 NSaved=  11.
 NSaved=11 IEnMin=11 EnMin= -75.7978678478718     IErMin=11 ErrMin= 2.95D-07
 ErrMax= 2.95D-07  0.00D+00 EMaxC= 1.00D-01 BMatC= 7.77D-12 BMatP= 1.61D-10
 IDIUse=1 WtCom= 1.00D+00 WtEn= 0.00D+00
 Coeff-Com: -0.813D-07-0.126D-06-0.103D-05 0.106D-05-0.789D-05-0.190D-04
 Coeff-Com:  0.331D-04 0.295D-02-0.161D-01-0.365D-01 0.105D+01
 Coeff:     -0.813D-07-0.126D-06-0.103D-05 0.106D-05-0.789D-05-0.190D-04
 Coeff:      0.331D-04 0.295D-02-0.161D-01-0.365D-01 0.105D+01
 Gap=     0.115 Goal=   None    Shift=    0.000
 Gap=     0.115 Goal=   None    Shift=    0.000
 RMSDP=3.24D-08 MaxDP=2.93D-07 DE=-3.58D-11 OVMax= 5.58D-07

 Cycle  12  Pass 1  IDiag  1:
 E= -75.7978678478735     Delta-E=       -0.000000000002 Rises=F Damp=F
 DIIS: error= 1.94D-09 at cycle  12 NSaved=  12.
 NSaved=12 IEnMin=12 EnMin= -75.7978678478735     IErMin=12 ErrMin= 1.94D-09
 ErrMax= 1.94D-09  0.00D+00 EMaxC= 1.00D-01 BMatC= 2.05D-16 BMatP= 7.77D-12
 IDIUse=1 WtCom= 1.00D+00 WtEn= 0.00D+00
 Coeff-Com: -0.406D-08-0.465D-08 0.427D-06-0.343D-07-0.467D-06-0.150D-05
 Coeff-Com: -0.232D-05 0.833D-04-0.402D-03-0.526D-02-0.540D-01 0.106D+01
 Coeff:     -0.406D-08-0.465D-08 0.427D-06-0.343D-07-0.467D-06-0.150D-05
 Coeff:     -0.232D-05 0.833D-04-0.402D-03-0.526D-02-0.540D-01 0.106D+01
 Gap=     0.115 Goal=   None    Shift=    0.000
 Gap=     0.115 Goal=   None    Shift=    0.000
 RMSDP=5.96D-10 MaxDP=7.11D-09 DE=-1.72D-12 OVMax= 1.08D-08

 SCF Done:  E(UB3LYP) =  -75.7978678479     A.U. after   12 cycles
            NFock= 12  Conv=0.60D-09     -V/T= 2.0022
 <Sx>= 0.0000 <Sy>= 0.0000 <Sz>= 0.0000 <S**2>= 0.0000 S= 0.0000
 <L.S>= 0.000000000000E+00
 KE= 7.562859533764D+01 PE=-1.930174058498D+02 EE= 3.657991342243D+01
 Annihilation of the first spin contaminant:
 S**2 before annihilation     0.0000,   after     0.0000
 Leave Link  502 at Mon Aug  3 15:50:30 2020, MaxMem=   524288000 cpu:               2.7 elap:               0.4
 (Enter /home/ubuntu/g16/l601.exe)
 Copying SCF densities to generalized density rwf, IOpCl= 1 IROHF=0.

 **********************************************************************

            Population analysis using the SCF density.

 **********************************************************************

 Orbital symmetries:
 Alpha Orbitals:
       Occupied  (SG) (SG) (SG) (PI) (PI)
       Virtual   (SG) (SG) (PI) (PI) (SG) (SG) (PI) (PI) (SG) (SG)
                 (DLTA) (DLTA) (PI) (PI) (SG) (PI) (PI) (SG) (PI)
                 (PI) (SG) (SG) (DLTA) (DLTA) (PI) (PI) (SG)
 Beta  Orbitals:
       Occupied  (SG) (SG) (SG) (PI) (PI)
       Virtual   (SG) (SG) (PI) (PI) (SG) (SG) (PI) (PI) (SG) (SG)
                 (DLTA) (DLTA) (PI) (PI) (SG) (PI) (PI) (SG) (PI)
                 (PI) (SG) (SG) (DLTA) (DLTA) (PI) (PI) (SG)
 The electronic state is 1-SG.
     Natural Orbital Coefficients:
                           1         2         3         4         5
     Eigenvalues --     2.00000   2.00000   2.00000   2.00000   2.00000
   1 1   O  1S         -0.25537   0.01307   0.00112   0.00997   0.98877
   2        2S          0.43409   0.19108  -0.01609   0.01269   0.02645
   3        3S          0.32254   0.36649  -0.04304   0.03352  -0.03811
   4        4S          0.01870   0.17877  -0.02416   0.01890  -0.02672
   5        5PX        -0.01695   0.10136   0.46482  -0.35143  -0.00270
   6        5PY         0.00081  -0.00242   0.35718   0.47172  -0.00492
   7        5PZ        -0.15537   0.49563  -0.07153   0.05632  -0.06322
   8        6PX        -0.01099   0.06570   0.30129  -0.22779  -0.00175
   9        6PY         0.00053  -0.00157   0.23152   0.30577  -0.00319
  10        6PZ         0.03471   0.20025  -0.02664   0.02097  -0.01670
  11        7PX        -0.00685   0.04094   0.18775  -0.14195  -0.00109
  12        7PY         0.00033  -0.00098   0.14427   0.19054  -0.00199
  13        7PZ        -0.01002   0.07456  -0.01043   0.00824  -0.00607
  14        8D 0        0.01643  -0.02138   0.00331  -0.00261   0.00366
  15        8D+1        0.00035  -0.00209  -0.00957   0.00723   0.00006
  16        8D-1       -0.00002   0.00005  -0.00735  -0.00971   0.00010
  17        8D+2       -0.00000  -0.00000   0.00000  -0.00000   0.00000
  18        8D-2        0.00000   0.00000  -0.00000  -0.00000   0.00000
  19        9D 0       -0.03762   0.02200  -0.00388   0.00306  -0.00474
  20        9D+1        0.00031  -0.00186  -0.00855   0.00646   0.00005
  21        9D-1       -0.00001   0.00004  -0.00657  -0.00867   0.00009
  22        9D+2       -0.00000  -0.00000   0.00000  -0.00000  -0.00000
  23        9D-2        0.00000   0.00000  -0.00000  -0.00000  -0.00000
  24 2   H  1S          0.35251  -0.36990   0.05877  -0.04640   0.05791
  25        2S          0.03242  -0.14631   0.02093  -0.01632   0.03211
  26        3S          0.00364  -0.02429   0.00342  -0.00268   0.00388
  27        4PX        -0.00096   0.00573   0.02628  -0.01987  -0.00015
  28        4PY         0.00005  -0.00014   0.02019   0.02667  -0.00028
  29        4PZ         0.04535  -0.01380   0.00291  -0.00233   0.00218
  30        5PX        -0.00115   0.00689   0.03159  -0.02388  -0.00018
  31        5PY         0.00006  -0.00016   0.02427   0.03206  -0.00033
  32        5PZ         0.00248   0.02234  -0.00296   0.00238   0.00332
                           6         7         8         9        10
     Eigenvalues --     0.00000   0.00000   0.00000   0.00000   0.00000
   1 1   O  1S         -0.00568  -0.00056   0.03353   0.05343   0.01174
   2        2S          0.13445   0.05982  -0.14232  -0.03722   0.06934
   3        3S         -0.00175  -0.00828  -0.17713  -0.20041   0.00279
   4        4S         -0.11347  -0.07353   0.04227   0.52410   0.38783
   5        5PX         0.00527  -0.01137  -0.02519  -0.39260   0.12251
   6        5PY         0.28987  -0.68083   0.43515  -0.14806  -0.01715
   7        5PZ        -0.04225  -0.05960  -0.13925   0.15392   0.00809
   8        6PX         0.02477   0.02978   0.22555   0.83381   0.21232
   9        6PY         0.07249   1.18894   0.27104   0.08041  -0.19906
  10        6PZ         0.10903   0.06542   0.00247  -0.05315  -0.00148
  11        7PX         0.01297  -0.01091  -0.21527  -0.40936  -0.03348
  12        7PY        -0.19965  -0.90514  -0.54282   0.05500   0.03778
  13        7PZ         0.04041   0.06202   0.20756  -0.14563  -0.04625
  14        8D 0        0.09552   0.08271   0.21328   0.13611   0.13619
  15        8D+1        0.03648   0.00796   0.03087  -0.18411   0.44395
  16        8D-1       -0.08225  -0.26872  -0.06286   0.03046   0.34213
  17        8D+2        0.00006   0.00006   0.00008   0.00018   0.00070
  18        8D-2        0.00000   0.00000  -0.00000  -0.00000   0.00000
  19        9D 0        0.00570  -0.01125  -0.05847   0.22442   0.14828
  20        9D+1        0.01082  -0.00613  -0.06903  -0.57404   0.13769
  21        9D-1        0.54423  -0.23382  -0.40686   0.19528  -0.15224
  22        9D+2       -0.00003  -0.00005   0.00046   0.00260   0.00129
  23        9D-2        0.00000  -0.00000  -0.00000  -0.00000  -0.00000
  24 2   H  1S          0.12142   0.08532   0.12307  -0.01769   0.01356
  25        2S         -0.06761  -0.05187   0.01900   0.00077  -0.26737
  26        3S         -0.00777   0.00929   0.07831  -0.03472  -0.14105
  27        4PX        -0.03683  -0.02715  -0.16843  -0.63113  -0.51805
  28        4PY         0.66464  -0.09025  -1.05332   0.09823   0.22060
  29        4PZ        -0.10339  -0.06753  -0.08530  -0.30170  -0.15627
  30        5PX        -0.02383   0.00348   0.03683   0.14510  -0.01976
  31        5PY        -0.73746   0.13200   0.25984  -0.01636   0.11098
  32        5PZ        -0.05500   0.01267   0.34241   0.05714  -0.09983
                          11        12        13        14        15
     Eigenvalues --     0.00000   0.00000   0.00000   0.00000   0.00000
   1 1   O  1S         -0.02705  -0.03526   0.01957  -0.04629   0.11168
   2        2S         -0.26950  -0.46768   0.21396  -0.34121   1.07539
   3        3S          0.11115   0.46267  -0.26160   0.76745  -6.80791
   4        4S         -0.49345   0.29447   1.81361  -0.89107  -7.86992
   5        5PX        -0.04732   0.10008   0.13946  -0.24555   0.00274
   6        5PY        -0.02130  -0.02359  -0.02043  -0.01712  -0.00015
   7        5PZ         0.11731   0.27937   0.02704   0.06967   0.30041
   8        6PX         0.64645  -0.50484  -0.59919   0.51844  -0.04175
   9        6PY        -0.26312   0.15847  -0.08129   0.14631   0.01266
  10        6PZ         0.02846  -0.74679  -0.75807  -0.18334   3.57137
  11        7PX        -0.09741   0.36417  -0.79028  -0.11362   0.03406
  12        7PY         0.32488  -0.09242   0.05573  -0.11764  -0.01289
  13        7PZ         0.14632   0.03919  -0.09820   0.11347   2.08143
  14        8D 0        0.47888  -0.33308   0.00348  -0.56890  -0.50540
  15        8D+1       -0.08995  -0.32932   0.04572   0.68180   0.16378
  16        8D-1       -0.12255   0.10315  -0.00986   0.08312  -0.01330
  17        8D+2        0.00315   0.00445   0.00393   0.00238   0.00855
  18        8D-2        0.00000   0.00000  -0.00000   0.00000   0.00000
  19        9D 0        0.15485   1.10889   0.60741   0.76778  -0.77757
  20        9D+1       -0.36655   0.12122   0.76538  -0.54046  -0.14640
  21        9D-1        0.05325  -0.02258   0.04757  -0.01886   0.00821
  22        9D+2       -0.00249   0.00238   0.01365  -0.00983   0.04877
  23        9D-2        0.00000  -0.00000   0.00000  -0.00000  -0.00000
  24 2   H  1S          0.01859  -0.94783  -0.77479  -0.40172   2.93687
  25        2S          0.30416   0.18549  -0.51273   0.09432  10.75318
  26        3S         -0.16990  -0.42185  -0.96636   0.57760   0.93270
  27        4PX        -0.15358  -0.33134   0.79293   0.26328  -0.00546
  28        4PY         0.18990  -0.14359   0.12763  -0.15058  -0.01169
  29        4PZ         0.48750   0.63782  -0.21746   0.39016   1.35069
  30        5PX        -0.66169   0.45547   0.86103  -0.47607   0.02355
  31        5PY        -0.04523   0.00436   0.00022   0.03977   0.00287
  32        5PZ         0.12470   0.05991   0.07352  -0.13255   2.83749
                          16        17        18        19        20
     Eigenvalues --     0.00000   0.00000   0.00000   0.00000  -0.00000
   1 1   O  1S         -0.01956  -0.00305   0.00169  -0.00000  -0.00000
   2        2S         -0.88259   0.10974   0.00964  -0.00000   0.00000
   3        3S          2.15127  -0.10058  -0.09297   0.00000  -0.00000
   4        4S          4.93960  -0.66581   0.00648   0.00000  -0.00000
   5        5PX         0.04979  -0.00874   0.00584  -0.00000  -0.00000
   6        5PY        -0.00012  -0.00095  -0.00052   0.00000   0.00000
   7        5PZ         0.36111  -0.01662   0.02848  -0.00000  -0.00000
   8        6PX        -0.27091   0.05730  -0.02025   0.00000   0.00000
   9        6PY         0.03103  -0.00706  -0.00040  -0.00000  -0.00000
  10        6PZ        -0.12237  -0.14187   0.05766  -0.00000  -0.00000
  11        7PX        -0.00991  -0.01052  -0.01006  -0.00000  -0.00000
  12        7PY        -0.00024   0.00218   0.00177  -0.00000   0.00000
  13        7PZ        -0.76608   0.14040   0.01616  -0.00000   0.00000
  14        8D 0        0.10912  -0.02192  -0.00974   0.00000   0.00000
  15        8D+1        0.33064  -0.09473   0.00317  -0.00000  -0.00000
  16        8D-1       -0.00309   0.00450   0.00035   0.00000   0.00000
  17        8D+2        0.06389   0.48329   1.05720  -0.00000   0.00000
  18        8D-2        0.00000  -0.00000   0.00000   0.90777   0.73174
  19        9D 0       -0.72087   0.13585  -0.03672   0.00000   0.00000
  20        9D+1       -0.27994   0.08396   0.00395   0.00000   0.00000
  21        9D-1       -0.00977   0.00072   0.00009  -0.00000   0.00000
  22        9D+2        0.14077   0.63747  -0.96379   0.00000   0.00000
  23        9D-2       -0.00000   0.00000  -0.00000   0.16078  -1.15483
  24 2   H  1S          1.03884  -0.20880   0.11085  -0.00000  -0.00000
  25        2S         -5.27573   0.47955   0.01955  -0.00000   0.00000
  26        3S         -1.52091   0.34023  -0.01045  -0.00000   0.00000
  27        4PX         0.00007   0.00064   0.00175   0.00000   0.00000
  28        4PY        -0.05014   0.00902  -0.00033  -0.00000   0.00000
  29        4PZ         0.46198  -0.10316   0.03753  -0.00000  -0.00000
  30        5PX         0.31066  -0.05636   0.02854  -0.00000  -0.00000
  31        5PY        -0.00750   0.00284  -0.00011   0.00000   0.00000
  32        5PZ        -2.71019   0.31852  -0.01751  -0.00000   0.00000
                          21        22        23        24        25
     Eigenvalues --    -0.00000  -0.00000  -0.00000  -0.00000  -0.00000
   1 1   O  1S         -0.00859   0.01769   0.01926   0.03357   0.00299
   2        2S         -0.08692  -0.27922  -0.00534  -1.10946  -0.30433
   3        3S          1.03086   0.53944  -0.83019   1.10685  -0.06074
   4        4S         -3.64005   2.77102   0.46887  -3.40475   0.02611
   5        5PX         0.08369  -0.07988   0.22784   0.02768  -0.72975
   6        5PY        -0.00579   0.01787  -0.01745  -0.02059  -0.02329
   7        5PZ        -0.45864  -0.59405   0.36333  -0.13928   0.41415
   8        6PX        -0.29970   0.18053  -0.65960  -0.34180   0.39216
   9        6PY        -0.02485   0.02547  -0.09851  -0.00477   0.06714
  10        6PZ        -0.67893   0.32239   0.08254   1.08948  -0.34331
  11        7PX         0.11561   0.19554  -0.21856  -0.61575   0.28198
  12        7PY         0.04979  -0.04906   0.11284   0.01432  -0.04705
  13        7PZ         1.29304  -1.83188  -0.97650   0.61660  -0.10326
  14        8D 0        0.72956  -0.04379  -0.05376  -0.03626   0.23244
  15        8D+1        0.45171   0.16434   0.26122  -0.35618   0.15209
  16        8D-1       -0.04899  -0.02514  -0.05389   0.07456   0.01572
  17        8D+2        0.02808   0.05500  -0.01378  -0.00496   0.00066
  18        8D-2        0.00000  -0.00000   0.00000  -0.00000  -0.00000
  19        9D 0       -0.04318   0.32969   0.16052  -0.25394  -0.10802
  20        9D+1       -0.44048  -0.22650  -0.06380   0.77821   0.48467
  21        9D-1        0.02809  -0.00469   0.05256  -0.00780   0.03672
  22        9D+2        0.01347   0.03676   0.00878  -0.00701  -0.00249
  23        9D-2       -0.00000  -0.00000  -0.00000   0.00000   0.00000
  24 2   H  1S         -1.99085  -0.46666   0.93566   0.66552  -0.03851
  25        2S          3.67623  -2.16536  -1.37126   2.17006   0.11959
  26        3S          0.65313  -1.21130   0.53503   0.92573  -0.00073
  27        4PX        -0.05493  -0.00760   0.00809   0.20687   0.56900
  28        4PY         0.03351  -0.01075   0.12071   0.01668   0.00009
  29        4PZ        -0.73887  -0.24953   0.18491   0.07991   0.35724
  30        5PX         0.22293  -0.32492   0.80710   0.89322  -0.18393
  31        5PY        -0.02802  -0.00796  -0.02944   0.01241  -0.01444
  32        5PZ         0.68932   0.16661   1.02130   0.17277   0.18968
                          26        27        28        29        30
     Eigenvalues --    -0.00000  -0.00000  -0.00000  -0.00000  -0.00000
   1 1   O  1S         -0.05916   0.00374  -0.01750  -0.00404  -0.03753
   2        2S          0.92119  -0.72150   0.10582   0.10658   0.11854
   3        3S         -0.56132   0.25675  -0.11522   0.00301   0.10317
   4        4S          0.24255   0.19458  -0.20830  -0.02112   0.17444
   5        5PX        -0.13174   0.22276   0.35273  -0.01162  -0.12655
   6        5PY         0.01426   0.08861  -0.10121   0.24351  -0.05463
   7        5PZ        -0.45044   0.24785   0.46034  -0.05903   0.20014
   8        6PX        -0.18149   0.01511  -0.28301  -0.06324   0.46610
   9        6PY         0.07650  -0.17650   0.39425  -1.08723   0.04775
  10        6PZ         0.42910  -0.35479  -0.10450   0.09157  -0.48417
  11        7PX        -0.64006  -0.45797   0.05080   0.10561  -0.85503
  12        7PY         0.03944  -0.20417  -0.34089  -1.12701  -0.11823
  13        7PZ        -0.22139   0.01819  -0.41604  -0.00427  -0.15115
  14        8D 0        0.36346  -0.06818   0.27855   0.04311  -0.27459
  15        8D+1       -0.17627  -0.07614  -0.04293   0.01348  -0.11556
  16        8D-1        0.06198  -0.16634   0.34951  -0.47429  -0.01142
  17        8D+2        0.00128   0.00261  -0.00013  -0.00010  -0.00003
  18        8D-2       -0.00000  -0.00000  -0.00000   0.00000  -0.00000
  19        9D 0       -0.10151   0.12340  -0.08863   0.00390  -0.15416
  20        9D+1        0.45905   0.07246   0.04051   0.02377   0.04164
  21        9D-1       -0.12795   0.14326  -0.01345   1.32353   0.19140
  22        9D+2        0.00624  -0.00316   0.00058   0.00019   0.00167
  23        9D-2        0.00000   0.00000   0.00000  -0.00000   0.00000
  24 2   H  1S         -0.29521  -0.56041  -0.05938   0.04882  -0.13479
  25        2S         -0.19164   0.33198   0.31067  -0.07564  -0.20932
  26        3S          0.12632   0.30048  -0.09517   0.00618  -0.53790
  27        4PX        -0.01658  -0.24589   0.19810   0.05729  -0.53905
  28        4PY        -0.16552   0.24924  -0.28834   0.29134   0.00049
  29        4PZ        -0.01875   0.78794   0.10490  -0.08033   0.03199
  30        5PX         1.05076   0.27912  -0.26756  -0.03250   0.69246
  31        5PY        -0.04925   0.13649   0.12854   2.07656   0.12991
  32        5PZ        -0.39546  -0.13398  -0.02306  -0.06479   0.15950
                          31        32
     Eigenvalues --    -0.00000  -0.00000
   1 1   O  1S         -0.00364   0.01882
   2        2S          0.04292  -0.11268
   3        3S         -0.06092  -0.15630
   4        4S         -0.12393   0.14128
   5        5PX        -0.14160   0.02230
   6        5PY         0.29813  -0.39910
   7        5PZ         0.02200  -0.34327
   8        6PX         0.10899  -0.01791
   9        6PY        -0.47127   0.26573
  10        6PZ        -0.02444   0.12976
  11        7PX        -0.03665   0.02427
  12        7PY        -0.40619  -0.04990
  13        7PZ         0.02354   0.24843
  14        8D 0       -0.00820   0.08613
  15        8D+1       -0.12410   0.00643
  16        8D-1        0.72292   0.57623
  17        8D+2       -0.00002   0.00010
  18        8D-2       -0.00000  -0.00000
  19        9D 0       -0.03364  -0.19528
  20        9D+1       -0.19100  -0.03462
  21        9D-1       -0.51242   0.39737
  22        9D+2        0.00016  -0.00008
  23        9D-2       -0.00000  -0.00000
  24 2   H  1S          0.02798   0.07787
  25        2S          0.09766  -0.10302
  26        3S         -0.03643   0.15155
  27        4PX         0.03976   0.05747
  28        4PY         0.42394   0.35725
  29        4PZ        -0.00787   0.05085
  30        5PX         0.02178  -0.07073
  31        5PY         0.31870   0.02058
  32        5PZ         0.07935   0.17832
          Condensed to atoms (all electrons):
               1          2
     1  O    8.485585   0.344567
     2  H    0.344567   0.825282
          Atomic-Atomic Spin Densities.
               1          2
     1  O   -0.000000   0.000000
     2  H    0.000000  -0.000000
 Mulliken charges and spin densities:
               1          2
     1  O   -0.830152  -0.000000
     2  H   -0.169848   0.000000
 Sum of Mulliken charges =  -1.00000   0.00000
 Mulliken charges and spin densities with hydrogens summed into heavy atoms:
               1          2
     1  O   -1.000000   0.000000

 Bonding Mulliken population analysis:
          Bonding Condensed to atoms (all electrons):
               1          2
     1  O    0.000000   0.344567
     2  H    0.344567   0.000000
          Bonding Atomic-Atomic Spin Densities.
               1          2
     1  O    0.000000   0.000000
     2  H    0.000000   0.000000
 Bonding Mulliken charges and spin densities:
               1          2
     1  O    7.655433   0.000000
     2  H    0.655433   0.000000
 Sum of Bonding Mulliken charges =   8.31087   0.00000
 Bonding Mulliken charges and spin densities with hydrogens summed into heavy atoms:
               1          2
     1  O    8.310867   0.000000
 Electronic spatial extent (au):  <R**2>=             24.3505
 Charge=             -1.0000 electrons
 Dipole moment (field-independent basis, Debye):
    X=             -0.0000    Y=             -0.0000    Z=             -1.5161  Tot=              1.5161
 Quadrupole moment (field-independent basis, Debye-Ang):
   XX=            -10.6834   YY=            -10.6834   ZZ=             -8.3383
   XY=             -0.0000   XZ=             -0.0000   YZ=             -0.0000
 Traceless Quadrupole moment (field-independent basis, Debye-Ang):
   XX=             -0.7817   YY=             -0.7817   ZZ=              1.5634
   XY=             -0.0000   XZ=             -0.0000   YZ=             -0.0000
 Octapole moment (field-independent basis, Debye-Ang**2):
  XXX=             -0.0000  YYY=             -0.0000  ZZZ=             -1.3901  XYY=             -0.0000
  XXY=             -0.0000  XXZ=             -0.4141  XZZ=             -0.0000  YZZ=             -0.0000
  YYZ=             -0.4141  XYZ=             -0.0000
 Hexadecapole moment (field-independent basis, Debye-Ang**3):
 XXXX=            -19.4410 YYYY=            -19.4410 ZZZZ=            -14.4981 XXXY=             -0.0000
 XXXZ=             -0.0000 YYYX=             -0.0000 YYYZ=             -0.0000 ZZZX=             -0.0000
 ZZZY=             -0.0000 XXYY=             -6.4803 XXZZ=             -5.7682 YYZZ=             -5.7682
 XXYZ=             -0.0000 YYXZ=             -0.0000 ZZXY=             -0.0000
 N-N= 5.011029241892D+00 E-N=-1.930174058665D+02  KE= 7.562859533764D+01
 Symmetry A1   KE= 6.776607412529D+01
 Symmetry A2   KE= 4.945136238871D-32
 Symmetry B1   KE= 3.931260607909D+00
 Symmetry B2   KE= 3.931260604443D+00
 Symmetry A1   SP= 2.230900956861D-16
 Symmetry A2   SP=-1.083682894403D-47
 Symmetry B1   SP=-1.971276980190D-15
 Symmetry B2   SP= 4.853401939250D-15

 Atomic contributions to Alpha molecular orbitals:
 Alpha occ 1 OE=-18.780 is O1-s=0.9986
 Alpha occ 2 OE=-0.635 is O1-s=0.6870 H2-s=0.2686
 Alpha occ 3 OE=-0.106 is O1-p=0.5989 H2-s=0.2032 O1-s=0.1891
 Alpha occ 4 OE=0.039 is O1-p=0.9590
 Alpha occ 5 OE=0.039 is O1-p=0.9590
 Alpha vir 6 OE=0.154 is H2-s=1.9178 O1-s=-0.7816
 Alpha vir 7 OE=0.307 is O1-p=1.6092 H2-s=-1.3130 O1-s=0.4751 H2-p=0.2327
 Alpha vir 8 OE=0.334 is O1-p=1.1483 H2-p=-0.1427
 Alpha vir 9 OE=0.334 is O1-p=1.1483 H2-p=-0.1427
 Alpha vir 10 OE=0.366 is O1-s=2.1035 H2-s=-1.1355
 Alpha vir 11 OE=0.483 is O1-s=0.6085 H2-s=0.4374 O1-p=-0.2516 H2-p=0.2492
 Alpha vir 12 OE=0.552 is H2-p=1.2267 O1-p=-0.1634
 Alpha vir 13 OE=0.552 is H2-p=1.2267 O1-p=-0.1634
 Alpha vir 14 OE=0.783 is H2-s=2.3074 O1-s=-1.7185 H2-p=0.6865 O1-p=-0.2736
 Alpha vir 15 OE=1.030 is O1-d=0.5697 H2-s=0.5067
 Alpha vir 16 OE=1.114 is O1-d=1.0000
 Alpha vir 17 OE=1.114 is O1-d=1.0000
 Alpha vir 18 OE=1.237 is O1-d=0.9247
 Alpha vir 19 OE=1.237 is O1-d=0.9247
 Alpha vir 20 OE=1.407 is O1-p=1.0128 O1-s=-0.3523 H2-p=0.2002
 Alpha vir 21 OE=1.489 is O1-p=1.0430 H2-p=-0.1655 O1-d=0.1226
 Alpha vir 22 OE=1.489 is O1-p=1.0430 H2-p=-0.1655 O1-d=0.1226
 Alpha vir 23 OE=1.827 is O1-s=0.3385 O1-d=0.3263 O1-p=0.1804 H2-s=0.1266
 Alpha vir 24 OE=2.195 is H2-p=0.9769
 Alpha vir 25 OE=2.195 is H2-p=0.9769
 Alpha vir 26 OE=2.721 is O1-s=1.3813 H2-s=-0.5479 O1-p=0.2069 H2-p=-0.1133
 Alpha vir 27 OE=2.915 is H2-p=0.5508 O1-d=0.2540
 Alpha vir 28 OE=3.552 is O1-d=1.0000
 Alpha vir 29 OE=3.552 is O1-d=1.0000
 Alpha vir 30 OE=3.685 is O1-d=0.9969
 Alpha vir 31 OE=3.685 is O1-d=0.9969
 Alpha vir 32 OE=4.295 is O1-d=0.7573 O1-s=0.1070

 Atomic contributions to Beta  molecular orbitals:
 Beta  occ 1 OE=-18.780 is O1-s=0.9986
 Beta  occ 2 OE=-0.635 is O1-s=0.6870 H2-s=0.2686
 Beta  occ 3 OE=-0.106 is O1-p=0.5989 H2-s=0.2032 O1-s=0.1891
 Beta  occ 4 OE=0.039 is O1-p=0.9590
 Beta  occ 5 OE=0.039 is O1-p=0.9590
 Beta  vir 6 OE=0.154 is H2-s=1.9178 O1-s=-0.7816
 Beta  vir 7 OE=0.307 is O1-p=1.6092 H2-s=-1.3130 O1-s=0.4751 H2-p=0.2327
 Beta  vir 8 OE=0.334 is O1-p=1.1483 H2-p=-0.1427
 Beta  vir 9 OE=0.334 is O1-p=1.1483 H2-p=-0.1427
 Beta  vir 10 OE=0.366 is O1-s=2.1035 H2-s=-1.1355
 Beta  vir 11 OE=0.483 is O1-s=0.6085 H2-s=0.4374 O1-p=-0.2516 H2-p=0.2492
 Beta  vir 12 OE=0.552 is H2-p=1.2267 O1-p=-0.1634
 Beta  vir 13 OE=0.552 is H2-p=1.2267 O1-p=-0.1634
 Beta  vir 14 OE=0.783 is H2-s=2.3074 O1-s=-1.7185 H2-p=0.6865 O1-p=-0.2736
 Beta  vir 15 OE=1.030 is O1-d=0.5697 H2-s=0.5067
 Beta  vir 16 OE=1.114 is O1-d=1.0000
 Beta  vir 17 OE=1.114 is O1-d=1.0000
 Beta  vir 18 OE=1.237 is O1-d=0.9247
 Beta  vir 19 OE=1.237 is O1-d=0.9247
 Beta  vir 20 OE=1.407 is O1-p=1.0128 O1-s=-0.3523 H2-p=0.2002
 Beta  vir 21 OE=1.489 is O1-p=1.0430 H2-p=-0.1655 O1-d=0.1226
 Beta  vir 22 OE=1.489 is O1-p=1.0430 H2-p=-0.1655 O1-d=0.1226
 Beta  vir 23 OE=1.827 is O1-s=0.3385 O1-d=0.3263 O1-p=0.1804 H2-s=0.1266
 Beta  vir 24 OE=2.195 is H2-p=0.9769
 Beta  vir 25 OE=2.195 is H2-p=0.9769
 Beta  vir 26 OE=2.721 is O1-s=1.3813 H2-s=-0.5479 O1-p=0.2069 H2-p=-0.1133
 Beta  vir 27 OE=2.915 is H2-p=0.5508 O1-d=0.2540
 Beta  vir 28 OE=3.552 is O1-d=1.0000
 Beta  vir 29 OE=3.552 is O1-d=1.0000
 Beta  vir 30 OE=3.685 is O1-d=0.9969
 Beta  vir 31 OE=3.685 is O1-d=0.9969
 Beta  vir 32 OE=4.295 is O1-d=0.7573 O1-s=0.1070
 
                          Isotropic Fermi Contact Couplings
        Atom                 a.u.       MegaHertz       Gauss      10(-4) cm-1
     1  O(17)              0.00000      -0.00000      -0.00000      -0.00000
     2  H(1)              -0.00000      -0.00000      -0.00000      -0.00000
 --------------------------------------------------------
       Center         ----  Spin Dipole Couplings  ----
                      3XX-RR        3YY-RR        3ZZ-RR
 --------------------------------------------------------
     1   Atom        0.000000      0.000000      0.000000
     2   Atom        0.000000      0.000000      0.000000
 --------------------------------------------------------
                        XY            XZ            YZ
 --------------------------------------------------------
     1   Atom        0.000000      0.000000      0.000000
     2   Atom        0.000000      0.000000      0.000000
 --------------------------------------------------------


 ---------------------------------------------------------------------------------
              Anisotropic Spin Dipole Couplings in Principal Axis System
 ---------------------------------------------------------------------------------

       Atom             a.u.   MegaHertz   Gauss  10(-4) cm-1        Axes

              Baa     0.0000    -0.000    -0.000    -0.000  1.0000  0.0000  0.0000
     1 O(17)  Bbb     0.0000    -0.000    -0.000    -0.000 -0.0000  1.0000  0.0000
              Bcc     0.0000    -0.000    -0.000    -0.000  0.0000  0.0000  1.0000
 
              Baa     0.0000     0.000     0.000     0.000  1.0000  0.0000  0.0000
     2 H(1)   Bbb     0.0000     0.000     0.000     0.000 -0.0000  1.0000  0.0000
              Bcc     0.0000     0.000     0.000     0.000  0.0000  0.0000  1.0000
 

 ---------------------------------------------------------------------------------

 No NMR shielding tensors so no spin-rotation constants.
 Leave Link  601 at Mon Aug  3 15:50:30 2020, MaxMem=   524288000 cpu:               1.2 elap:               0.2
 (Enter /home/ubuntu/g16/l602.exe)
 FitSet:  NAtFit=     2 NAtPot=     2 NAtFrz=     0 MDM=     6 TotChg=  -1.00000
 Merz-Kollman atomic radii used.

 **********************************************************************

            Electrostatic Properties Using The SCF Density

 **********************************************************************

       Atomic Center    1 is at   0.000000  0.000000  0.093869
       Atomic Center    2 is at   0.000000  0.000000 -0.750951
     262 points will be used for fitting atomic charges
 Fitting point charges to electrostatic potential
 Charges from ESP fit, RMS=   0.00698 RRMS=   0.03260:
 ESP charges:
               1
     1  O   -1.264045
     2  H    0.264045
 Sum of ESP charges =  -1.00000
 ESP charges with hydrogens summed into heavy atoms:
               1
     1  O   -1.000000
 Charge=  -1.00000 Dipole=    -0.0000    -0.0000    -1.5223 Tot=     1.5223
 -----------------------------------------------------------------

              Electrostatic Properties (Atomic Units)

 -----------------------------------------------------------------
    Center     Electric         -------- Electric Field --------
               Potential          X             Y             Z
 -----------------------------------------------------------------
    1 Atom    -22.705883
    2 Atom     -1.348285
 -----------------------------------------------------------------
 Leave Link  602 at Mon Aug  3 15:50:30 2020, MaxMem=   524288000 cpu:               0.2 elap:               0.0
 (Enter /home/ubuntu/g16/l607.exe)
 ******************************Gaussian NBO Version 3.1******************************
             N A T U R A L   A T O M I C   O R B I T A L   A N D
          N A T U R A L   B O N D   O R B I T A L   A N A L Y S I S
 ******************************Gaussian NBO Version 3.1******************************

       /RESON  / : Allow strongly delocalized NBO set
       /BNDIDX / : Print bond indices based on the NAO density matrix

 Analyzing the SCF density

 Job title: HO-_UB3LYP-aug-cc-pVDZ                                          

 Storage needed:      3284 in NPA,      4219 in NBO ( 524287972 available)
 GSVD:  LWork=        -426 too small for GESVD, short by        3101 words or        3101 for optimal perf.


 NATURAL POPULATIONS:  Natural atomic orbital occupancies 
                                                          
   NAO  Atom  No  lang   Type(AO)    Occupancy
 --------------------------------------------
     1    O    1  S      Cor( 1S)     1.99989
     2    O    1  S      Val( 2S)     1.81500
     3    O    1  S      Ryd( 3S)     0.00077
     4    O    1  S      Ryd( 4S)     0.00000
     5    O    1  px     Val( 2p)     1.99159
     6    O    1  px     Ryd( 3p)     0.00144
     7    O    1  px     Ryd( 4p)     0.00001
     8    O    1  py     Val( 2p)     1.99159
     9    O    1  py     Ryd( 3p)     0.00144
    10    O    1  py     Ryd( 4p)     0.00001
    11    O    1  pz     Val( 2p)     1.54941
    12    O    1  pz     Ryd( 3p)     0.00919
    13    O    1  pz     Ryd( 4p)     0.00029
    14    O    1  dxy    Ryd( 4d)     0.00000
    15    O    1  dxy    Ryd( 3d)     0.00000
    16    O    1  dxz    Ryd( 3d)     0.00264
    17    O    1  dxz    Ryd( 4d)     0.00006
    18    O    1  dyz    Ryd( 3d)     0.00264
    19    O    1  dyz    Ryd( 4d)     0.00006
    20    O    1  dx2y2  Ryd( 3d)     0.00000
    21    O    1  dx2y2  Ryd( 4d)     0.00000
    22    O    1  dz2    Ryd( 3d)     0.00183
    23    O    1  dz2    Ryd( 4d)     0.00075

    24    H    2  S      Val( 1S)     0.62000
    25    H    2  S      Ryd( 2S)     0.00035
    26    H    2  S      Ryd( 3S)     0.00000
    27    H    2  px     Ryd( 2p)     0.00427
    28    H    2  px     Ryd( 3p)     0.00000
    29    H    2  py     Ryd( 2p)     0.00427
    30    H    2  py     Ryd( 3p)     0.00000
    31    H    2  pz     Ryd( 3p)     0.00079
    32    H    2  pz     Ryd( 2p)     0.00172


 Summary of Natural Population Analysis:                  
                                                          
                                       Natural Population 
                Natural  -----------------------------------------------
    Atom  No    Charge         Core      Valence    Rydberg      Total
 -----------------------------------------------------------------------
      O    1   -1.36860      1.99989     7.34759    0.02112     9.36860
      H    2    0.36860      0.00000     0.62000    0.01140     0.63140
 =======================================================================
   * Total *   -1.00000      1.99989     7.96759    0.03252    10.00000

                                 Natural Population      
 --------------------------------------------------------
   Core                       1.99989 ( 99.9946% of   2)
   Valence                    7.96759 ( 99.5948% of   8)
   Natural Minimal Basis      9.96748 ( 99.6748% of  10)
   Natural Rydberg Basis      0.03252 (  0.3252% of  10)
 --------------------------------------------------------

    Atom  No          Natural Electron Configuration
 ----------------------------------------------------------------------------
      O    1      [core]2S( 1.82)2p( 5.53)3p( 0.01)3d( 0.01)
      H    2            1S( 0.62)2p( 0.01)


 Wiberg bond index matrix in the NAO basis:                                    

     Atom    1       2
     ---- ------  ------
   1.  O  0.0000  0.8764
   2.  H  0.8764  0.0000


 Wiberg bond index, Totals by atom:                                            

     Atom    1
     ---- ------
   1.  O  0.8764
   2.  H  0.8764


 Atom-atom overlap-weighted NAO bond order:                                    

     Atom    1       2
     ---- ------  ------
   1.  O  0.0000  0.8554
   2.  H  0.8554  0.0000


 Atom-atom overlap-weighted NAO bond order, Totals by atom:                    

     Atom    1
     ---- ------
   1.  O  0.8554
   2.  H  0.8554


 MO bond order:                                                                

     Atom    1       2
     ---- ------  ------
   1.  O  0.0000 -0.0557
   2.  H -0.0557  0.0000


 MO atomic valencies:                                                          

     Atom    1
     ---- ------
   1.  O -0.0557
   2.  H -0.0557


 ***************************************************
 *******         Alpha spin orbitals         *******
 ***************************************************


 NATURAL POPULATIONS:  Natural atomic orbital occupancies 
                                                          
   NAO  Atom  No  lang   Type(AO)    Occupancy      Energy
 ----------------------------------------------------------
     1    O    1  S      Cor( 1S)     0.99995     -18.55886
     2    O    1  S      Val( 2S)     0.90750      -0.59496
     3    O    1  S      Ryd( 4S)     0.00039       2.34784
     4    O    1  S      Ryd( 3S)     0.00000       0.76469
     5    O    1  px     Val( 2p)     0.99579       0.04293
     6    O    1  px     Ryd( 4p)     0.00072       0.94311
     7    O    1  px     Ryd( 3p)     0.00000       0.90234
     8    O    1  py     Val( 2p)     0.99579       0.04293
     9    O    1  py     Ryd( 4p)     0.00072       0.94311
    10    O    1  py     Ryd( 3p)     0.00000       0.90234
    11    O    1  pz     Val( 2p)     0.77471       0.10966
    12    O    1  pz     Ryd( 3p)     0.00460       0.98116
    13    O    1  pz     Ryd( 4p)     0.00014       1.07294
    14    O    1  dxy    Ryd( 3d)     0.00000       1.54368
    15    O    1  dxy    Ryd( 4d)     0.00000       3.12209
    16    O    1  dxz    Ryd( 3d)     0.00132       1.67818
    17    O    1  dxz    Ryd( 4d)     0.00003       3.24376
    18    O    1  dyz    Ryd( 3d)     0.00132       1.67818
    19    O    1  dyz    Ryd( 4d)     0.00003       3.24376
    20    O    1  dx2y2  Ryd( 3d)     0.00000       1.54368
    21    O    1  dx2y2  Ryd( 4d)     0.00000       3.12209
    22    O    1  dz2    Ryd( 3d)     0.00092       2.43966
    23    O    1  dz2    Ryd( 4d)     0.00037       3.20618

    24    H    2  S      Val( 3S)     0.31000       0.56115
    25    H    2  S      Ryd( 2S)     0.00018       0.53553
    26    H    2  S      Ryd( 1S)     0.00000       0.24398
    27    H    2  px     Ryd( 2p)     0.00214       1.22292
    28    H    2  px     Ryd( 3p)     0.00000       1.49758
    29    H    2  py     Ryd( 2p)     0.00214       1.22292
    30    H    2  py     Ryd( 3p)     0.00000       1.49758
    31    H    2  pz     Ryd( 3p)     0.00039       1.88258
    32    H    2  pz     Ryd( 2p)     0.00086       1.77593

 WARNING:  Population inversion found on atom  O    1
           Population inversion found on atom  H    2


 Summary of Natural Population Analysis:                  
                                                          
                                       Natural Population 
                Natural  -----------------------------------------------
    Atom  No    Charge         Core      Valence    Rydberg      Total
 -----------------------------------------------------------------------
      O    1   -0.68430      0.99995     3.67379    0.01056     4.68430
      H    2    0.18430      0.00000     0.31000    0.00570     0.31570
 =======================================================================
   * Total *   -0.50000      0.99995     3.98379    0.01626     5.00000

                                 Natural Population      
 --------------------------------------------------------
   Core                       0.99995 ( 99.9946% of   1)
   Valence                    3.98379 ( 99.5948% of   4)
   Natural Minimal Basis      4.98374 ( 99.6748% of   5)
   Natural Rydberg Basis      0.01626 (  0.3252% of   5)
 --------------------------------------------------------

    Atom  No          Natural Electron Configuration
 ----------------------------------------------------------------------------
      O    1      [core]2S( 0.91)2p( 2.77)
      H    2            2p( 0.01)3S( 0.31)


 Wiberg bond index matrix in the NAO basis:                                    

     Atom    1       2
     ---- ------  ------
   1.  O  0.0000  0.2191
   2.  H  0.2191  0.0000


 Wiberg bond index, Totals by atom:                                            

     Atom    1
     ---- ------
   1.  O  0.2191
   2.  H  0.2191


 Atom-atom overlap-weighted NAO bond order:                                    

     Atom    1       2
     ---- ------  ------
   1.  O  0.0000  0.4277
   2.  H  0.4277  0.0000


 Atom-atom overlap-weighted NAO bond order, Totals by atom:                    

     Atom    1
     ---- ------
   1.  O  0.4277
   2.  H  0.4277


 MO bond order:                                                                

     Atom    1       2
     ---- ------  ------
   1.  O  0.0000 -0.0278
   2.  H -0.0278  0.0000


 MO atomic valencies:                                                          

     Atom    1
     ---- ------
   1.  O -0.0278
   2.  H -0.0278


 NATURAL BOND ORBITAL ANALYSIS, alpha spin orbitals:

                       Occupancies       Lewis Structure    Low   High
           Occ.    -------------------  -----------------   occ   occ
  Cycle   Thresh.   Lewis   Non-Lewis     CR  BD  3C  LP    (L)   (NL)   Dev
 =============================================================================
   1(1)    0.90     4.99509   0.00491      1   1   0   3     0      0    0.00
 -----------------------------------------------------------------------------

 Structure accepted: No low occupancy Lewis orbitals

 --------------------------------------------------------
   Core                      0.99995 ( 99.995% of   1)
   Valence Lewis             3.99515 ( 99.879% of   4)
  ==================       ============================
   Total Lewis               4.99509 ( 99.902% of   5)
  -----------------------------------------------------
   Valence non-Lewis         0.00000 (  0.000% of   5)
   Rydberg non-Lewis         0.00491 (  0.098% of   5)
  ==================       ============================
   Total non-Lewis           0.00491 (  0.098% of   5)
 --------------------------------------------------------


       (Occupancy)   Bond orbital/ Coefficients/ Hybrids
 ---------------------------------------------------------------------------------
     1. (1.00000) BD ( 1) O   1 - H   2  
                ( 68.92%)   0.8302* O   1 s( 29.20%)p 2.42( 70.65%)d 0.01(  0.15%)
                                            0.0000 -0.5400 -0.0209 -0.0000  0.0000
                                            0.0000  0.0000  0.0000  0.0000  0.0000
                                            0.8367  0.0799  0.0046  0.0000  0.0000
                                            0.0000  0.0000  0.0000  0.0000  0.0000
                                            0.0000 -0.0315 -0.0220
                ( 31.08%)   0.5575* H   2 s( 99.74%)p 0.00(  0.26%)
                                           -0.9987  0.0000  0.0000  0.0000  0.0000
                                            0.0000  0.0000 -0.0065 -0.0503
     2. (0.99995) CR ( 1) O   1           s(100.00%)
                                            1.0000  0.0000 -0.0000 -0.0000  0.0000
                                            0.0000  0.0000  0.0000  0.0000  0.0000
                                            0.0000  0.0000 -0.0000  0.0000  0.0000
                                            0.0000  0.0000  0.0000  0.0000 -0.0000
                                           -0.0000 -0.0000  0.0000
     3. (0.99942) LP ( 1) O   1           s( 70.70%)p 0.41( 29.27%)d 0.00(  0.03%)
                                           -0.0000  0.8408 -0.0093 -0.0000  0.0000
                                            0.0000  0.0000  0.0000  0.0000  0.0000
                                            0.5407  0.0140 -0.0113  0.0000  0.0000
                                            0.0000  0.0000  0.0000  0.0000 -0.0000
                                           -0.0000 -0.0153  0.0063
     4. (0.99786) LP ( 2) O   1           s(  0.00%)p 1.00( 99.87%)d 0.00(  0.13%)
                                            0.0000  0.0000  0.0000  0.0000  0.9990
                                           -0.0269  0.0018  0.0000  0.0000  0.0000
                                            0.0000  0.0000  0.0000  0.0000  0.0000
                                           -0.0364  0.0053  0.0000  0.0000  0.0000
                                            0.0000  0.0000  0.0000
     5. (0.99786) LP ( 3) O   1           s(  0.00%)p 1.00( 99.87%)d 0.00(  0.13%)
                                            0.0000  0.0000  0.0000  0.0000  0.0000
                                            0.0000  0.0000  0.9990 -0.0269  0.0018
                                            0.0000  0.0000  0.0000  0.0000  0.0000
                                            0.0000  0.0000 -0.0364  0.0053  0.0000
                                            0.0000  0.0000  0.0000
     6. (0.00000) RY*( 1) O   1           s( 99.95%)p 0.00(  0.05%)d 0.00(  0.00%)
     7. (0.00000) RY*( 2) O   1           s(100.00%)
     8. (0.00000) RY*( 3) O   1           s(  0.00%)p 1.00(100.00%)d 0.00(  0.00%)
     9. (0.00000) RY*( 4) O   1           s(  0.00%)p 1.00(100.00%)
    10. (0.00000) RY*( 5) O   1           s(  0.00%)p 1.00(100.00%)d 0.00(  0.00%)
    11. (0.00000) RY*( 6) O   1           s(  0.00%)p 1.00(100.00%)
    12. (0.00000) RY*( 7) O   1           s(  0.10%)p99.99( 99.90%)d 0.01(  0.00%)
    13. (0.00000) RY*( 8) O   1           s(  0.01%)p99.99( 99.99%)d 0.00(  0.00%)
    14. (0.00000) RY*( 9) O   1           s(  0.00%)p 0.00(  0.00%)d 1.00(100.00%)
    15. (0.00000) RY*(10) O   1           s(  0.00%)p 0.00(  0.00%)d 1.00(100.00%)
    16. (0.00000) RY*(11) O   1           s(  0.00%)p 1.00(  0.13%)d99.99( 99.87%)
    17. (0.00000) RY*(12) O   1           s(  0.00%)p 0.00(  0.00%)d 1.00(100.00%)
    18. (0.00000) RY*(13) O   1           s(  0.00%)p 1.00(  0.13%)d99.99( 99.87%)
    19. (0.00000) RY*(14) O   1           s(  0.00%)p 0.00(  0.00%)d 1.00(100.00%)
    20. (0.00000) RY*(15) O   1           s(  0.00%)p 0.00(  0.00%)d 1.00(100.00%)
    21. (0.00000) RY*(16) O   1           s(  0.00%)p 0.00(  0.00%)d 1.00(100.00%)
    22. (0.00000) RY*(17) O   1           s(  0.00%)p 1.00(  0.12%)d99.99( 99.88%)
    23. (0.00000) RY*(18) O   1           s(  0.03%)p 0.78(  0.02%)d99.99( 99.95%)
    24. (0.00214) RY*( 1) H   2           s(  0.00%)p 1.00(100.00%)
                                            0.0000  0.0000  0.0000  0.9999  0.0113
                                            0.0000  0.0000  0.0000  0.0000
    25. (0.00214) RY*( 2) H   2           s(  0.00%)p 1.00(100.00%)
                                            0.0000  0.0000  0.0000  0.0000  0.0000
                                            0.9999  0.0113  0.0000  0.0000
    26. (0.00059) RY*( 3) H   2           s( 26.27%)p 2.81( 73.73%)
                                            0.0120  0.5121 -0.0158  0.0000  0.0000
                                            0.0000  0.0000  0.7880 -0.3410
    27. (0.00004) RY*( 4) H   2           s( 56.44%)p 0.77( 43.56%)
    28. (0.00000) RY*( 5) H   2           s( 98.75%)p 0.01(  1.25%)
    29. (0.00000) RY*( 6) H   2           s(  0.00%)p 1.00(100.00%)
    30. (0.00000) RY*( 7) H   2           s(  0.00%)p 1.00(100.00%)
    31. (0.00000) RY*( 8) H   2           s( 18.79%)p 4.32( 81.21%)
    32. (0.00000) BD*( 1) O   1 - H   2  
                ( 31.08%)   0.5575* O   1 s( 29.20%)p 2.42( 70.65%)d 0.01(  0.15%)
                ( 68.92%)  -0.8302* H   2 s( 99.74%)p 0.00(  0.26%)


 NHO Directionality and "Bond Bending" (deviations from line of nuclear centers)

         [Thresholds for printing:  angular deviation  >  1.0 degree]
                                    hybrid p-character > 25.0%
                                    orbital occupancy  >  0.10e

                                Line of Centers        Hybrid 1              Hybrid 2
                                ---------------  -------------------   ------------------
                NBO               Theta   Phi    Theta   Phi    Dev    Theta   Phi    Dev
 ========================================================================================
     3. LP (   1) O   1             --     --      0.0    0.0   --       --     --    --
     4. LP (   2) O   1             --     --     90.0    0.0   --       --     --    --
     5. LP (   3) O   1             --     --     90.0   90.0   --       --     --    --


 Second Order Perturbation Theory Analysis of Fock Matrix in NBO Basis

     Threshold for printing:   0.25 kcal/mol
                                                                              E(2)  E(j)-E(i) F(i,j)
         Donor NBO (i)                     Acceptor NBO (j)                 kcal/mol   a.u.    a.u. 
 ===================================================================================================

 within unit  1
   2. CR (   1) O   1                / 27. RY*(   4) H   2                    0.51   20.08    0.127
   3. LP (   1) O   1                / 26. RY*(   3) H   2                    0.63    1.36    0.037
   4. LP (   2) O   1                / 24. RY*(   1) H   2                    1.62    1.20    0.056
   4. LP (   2) O   1                / 30. RY*(   7) H   2                    0.47    1.44    0.033
   5. LP (   3) O   1                / 25. RY*(   2) H   2                    1.62    1.20    0.056
   5. LP (   3) O   1                / 29. RY*(   6) H   2                    0.47    1.44    0.033


 Natural Bond Orbitals (Summary):

                                                            Principal Delocalizations
           NBO                        Occupancy    Energy   (geminal,vicinal,remote)
 ====================================================================================
 Molecular unit  1  (HO)
     1. BD (   1) O   1 - H   2          1.00000    -0.50750   
     2. CR (   1) O   1                  0.99995   -18.55894  27(v)
     3. LP (   1) O   1                  0.99942    -0.45265  26(v)
     4. LP (   2) O   1                  0.99786     0.04132  24(v),30(v)
     5. LP (   3) O   1                  0.99786     0.04132  25(v),29(v)
     6. RY*(   1) O   1                  0.00000     2.34753   
     7. RY*(   2) O   1                  0.00000     0.76469   
     8. RY*(   3) O   1                  0.00000     0.94384   
     9. RY*(   4) O   1                  0.00000     0.90231   
    10. RY*(   5) O   1                  0.00000     0.94384   
    11. RY*(   6) O   1                  0.00000     0.90231   
    12. RY*(   7) O   1                  0.00000     0.97267   
    13. RY*(   8) O   1                  0.00000     1.07427   
    14. RY*(   9) O   1                  0.00000     1.54368   
    15. RY*(  10) O   1                  0.00000     3.12209   
    16. RY*(  11) O   1                  0.00000     1.67940   
    17. RY*(  12) O   1                  0.00000     3.24346   
    18. RY*(  13) O   1                  0.00000     1.67940   
    19. RY*(  14) O   1                  0.00000     3.24346   
    20. RY*(  15) O   1                  0.00000     1.54368   
    21. RY*(  16) O   1                  0.00000     3.12209   
    22. RY*(  17) O   1                  0.00000     2.42704   
    23. RY*(  18) O   1                  0.00000     3.20998   
    24. RY*(   1) H   2                  0.00214     1.23903   
    25. RY*(   2) H   2                  0.00214     1.23903   
    26. RY*(   3) H   2                  0.00059     0.90375   
    27. RY*(   4) H   2                  0.00004     1.52364   
    28. RY*(   5) H   2                  0.00000     0.31952   
    29. RY*(   6) H   2                  0.00000     1.48146   
    30. RY*(   7) H   2                  0.00000     1.48146   
    31. RY*(   8) H   2                  0.00000     1.67105   
    32. BD*(   1) O   1 - H   2          0.00000     1.07246   
       -------------------------------
              Total Lewis    4.99509  ( 99.9019%)
        Valence non-Lewis    0.00000  (  0.0000%)
        Rydberg non-Lewis    0.00491  (  0.0981%)
       -------------------------------
            Total unit  1    5.00000  (100.0000%)
           Charge unit  1   -0.50000


 ***************************************************
 *******         Beta  spin orbitals         *******
 ***************************************************


 NATURAL POPULATIONS:  Natural atomic orbital occupancies 
                                                          
   NAO  Atom  No  lang   Type(AO)    Occupancy      Energy
 ----------------------------------------------------------
     1    O    1  S      Cor( 1S)     0.99995     -18.55886
     2    O    1  S      Val( 2S)     0.90750      -0.59496
     3    O    1  S      Ryd( 4S)     0.00039       2.34784
     4    O    1  S      Ryd( 3S)     0.00000       0.76469
     5    O    1  px     Val( 2p)     0.99579       0.04293
     6    O    1  px     Ryd( 4p)     0.00072       0.94311
     7    O    1  px     Ryd( 3p)     0.00000       0.90234
     8    O    1  py     Val( 2p)     0.99579       0.04293
     9    O    1  py     Ryd( 4p)     0.00072       0.94311
    10    O    1  py     Ryd( 3p)     0.00000       0.90234
    11    O    1  pz     Val( 2p)     0.77471       0.10966
    12    O    1  pz     Ryd( 3p)     0.00460       0.98116
    13    O    1  pz     Ryd( 4p)     0.00014       1.07294
    14    O    1  dxy    Ryd( 3d)     0.00000       1.54368
    15    O    1  dxy    Ryd( 4d)     0.00000       3.12209
    16    O    1  dxz    Ryd( 3d)     0.00132       1.67818
    17    O    1  dxz    Ryd( 4d)     0.00003       3.24376
    18    O    1  dyz    Ryd( 3d)     0.00132       1.67818
    19    O    1  dyz    Ryd( 4d)     0.00003       3.24376
    20    O    1  dx2y2  Ryd( 3d)     0.00000       1.54368
    21    O    1  dx2y2  Ryd( 4d)     0.00000       3.12209
    22    O    1  dz2    Ryd( 3d)     0.00092       2.43966
    23    O    1  dz2    Ryd( 4d)     0.00037       3.20618

    24    H    2  S      Val( 3S)     0.31000       0.56115
    25    H    2  S      Ryd( 2S)     0.00018       0.53553
    26    H    2  S      Ryd( 1S)     0.00000       0.24398
    27    H    2  px     Ryd( 2p)     0.00214       1.22292
    28    H    2  px     Ryd( 3p)     0.00000       1.49758
    29    H    2  py     Ryd( 2p)     0.00214       1.22292
    30    H    2  py     Ryd( 3p)     0.00000       1.49758
    31    H    2  pz     Ryd( 3p)     0.00039       1.88258
    32    H    2  pz     Ryd( 2p)     0.00086       1.77593

 WARNING:  Population inversion found on atom  O    1
           Population inversion found on atom  H    2


 Summary of Natural Population Analysis:                  
                                                          
                                       Natural Population 
                Natural  -----------------------------------------------
    Atom  No    Charge         Core      Valence    Rydberg      Total
 -----------------------------------------------------------------------
      O    1   -0.68430      0.99995     3.67379    0.01056     4.68430
      H    2    0.18430      0.00000     0.31000    0.00570     0.31570
 =======================================================================
   * Total *   -0.50000      0.99995     3.98379    0.01626     5.00000

                                 Natural Population      
 --------------------------------------------------------
   Core                       0.99995 ( 99.9946% of   1)
   Valence                    3.98379 ( 99.5948% of   4)
   Natural Minimal Basis      4.98374 ( 99.6748% of   5)
   Natural Rydberg Basis      0.01626 (  0.3252% of   5)
 --------------------------------------------------------

    Atom  No          Natural Electron Configuration
 ----------------------------------------------------------------------------
      O    1      [core]2S( 0.91)2p( 2.77)
      H    2            2p( 0.01)3S( 0.31)


 Wiberg bond index matrix in the NAO basis:                                    

     Atom    1       2
     ---- ------  ------
   1.  O  0.0000  0.2191
   2.  H  0.2191  0.0000


 Wiberg bond index, Totals by atom:                                            

     Atom    1
     ---- ------
   1.  O  0.2191
   2.  H  0.2191


 Atom-atom overlap-weighted NAO bond order:                                    

     Atom    1       2
     ---- ------  ------
   1.  O  0.0000  0.4277
   2.  H  0.4277  0.0000


 Atom-atom overlap-weighted NAO bond order, Totals by atom:                    

     Atom    1
     ---- ------
   1.  O  0.4277
   2.  H  0.4277


 MO bond order:                                                                

     Atom    1       2
     ---- ------  ------
   1.  O  0.0000 -0.0278
   2.  H -0.0278  0.0000


 MO atomic valencies:                                                          

     Atom    1
     ---- ------
   1.  O -0.0278
   2.  H -0.0278


 NATURAL BOND ORBITAL ANALYSIS, beta spin orbitals:

                       Occupancies       Lewis Structure    Low   High
           Occ.    -------------------  -----------------   occ   occ
  Cycle   Thresh.   Lewis   Non-Lewis     CR  BD  3C  LP    (L)   (NL)   Dev
 =============================================================================
   1(1)    0.90     4.99509   0.00491      1   1   0   3     0      0    0.00
 -----------------------------------------------------------------------------

 Structure accepted: No low occupancy Lewis orbitals

 --------------------------------------------------------
   Core                      0.99995 ( 99.995% of   1)
   Valence Lewis             3.99515 ( 99.879% of   4)
  ==================       ============================
   Total Lewis               4.99509 ( 99.902% of   5)
  -----------------------------------------------------
   Valence non-Lewis         0.00000 (  0.000% of   5)
   Rydberg non-Lewis         0.00491 (  0.098% of   5)
  ==================       ============================
   Total non-Lewis           0.00491 (  0.098% of   5)
 --------------------------------------------------------


       (Occupancy)   Bond orbital/ Coefficients/ Hybrids
 ---------------------------------------------------------------------------------
     1. (1.00000) BD ( 1) O   1 - H   2  
                ( 68.92%)   0.8302* O   1 s( 29.20%)p 2.42( 70.65%)d 0.01(  0.15%)
                                            0.0000 -0.5400 -0.0209 -0.0000  0.0000
                                            0.0000  0.0000  0.0000  0.0000  0.0000
                                            0.8367  0.0799  0.0046  0.0000  0.0000
                                            0.0000  0.0000  0.0000  0.0000  0.0000
                                            0.0000 -0.0315 -0.0220
                ( 31.08%)   0.5575* H   2 s( 99.74%)p 0.00(  0.26%)
                                           -0.9987  0.0000  0.0000  0.0000  0.0000
                                            0.0000  0.0000 -0.0065 -0.0503
     2. (0.99995) CR ( 1) O   1           s(100.00%)
                                            1.0000  0.0000 -0.0000 -0.0000  0.0000
                                            0.0000  0.0000  0.0000  0.0000  0.0000
                                            0.0000  0.0000 -0.0000  0.0000  0.0000
                                            0.0000  0.0000  0.0000  0.0000 -0.0000
                                           -0.0000 -0.0000  0.0000
     3. (0.99942) LP ( 1) O   1           s( 70.70%)p 0.41( 29.27%)d 0.00(  0.03%)
                                           -0.0000  0.8408 -0.0093 -0.0000  0.0000
                                            0.0000  0.0000  0.0000  0.0000  0.0000
                                            0.5407  0.0140 -0.0113  0.0000  0.0000
                                            0.0000  0.0000  0.0000  0.0000 -0.0000
                                           -0.0000 -0.0153  0.0063
     4. (0.99786) LP ( 2) O   1           s(  0.00%)p 1.00( 99.87%)d 0.00(  0.13%)
                                            0.0000  0.0000  0.0000  0.0000  0.9990
                                           -0.0269  0.0018  0.0000  0.0000  0.0000
                                            0.0000  0.0000  0.0000  0.0000  0.0000
                                           -0.0364  0.0053  0.0000  0.0000  0.0000
                                            0.0000  0.0000  0.0000
     5. (0.99786) LP ( 3) O   1           s(  0.00%)p 1.00( 99.87%)d 0.00(  0.13%)
                                            0.0000  0.0000  0.0000  0.0000  0.0000
                                            0.0000  0.0000  0.9990 -0.0269  0.0018
                                            0.0000  0.0000  0.0000  0.0000  0.0000
                                            0.0000  0.0000 -0.0364  0.0053  0.0000
                                            0.0000  0.0000  0.0000
     6. (0.00000) RY*( 1) O   1           s( 99.95%)p 0.00(  0.05%)d 0.00(  0.00%)
     7. (0.00000) RY*( 2) O   1           s(100.00%)
     8. (0.00000) RY*( 3) O   1           s(  0.00%)p 1.00(100.00%)d 0.00(  0.00%)
     9. (0.00000) RY*( 4) O   1           s(  0.00%)p 1.00(100.00%)
    10. (0.00000) RY*( 5) O   1           s(  0.00%)p 1.00(100.00%)d 0.00(  0.00%)
    11. (0.00000) RY*( 6) O   1           s(  0.00%)p 1.00(100.00%)
    12. (0.00000) RY*( 7) O   1           s(  0.10%)p99.99( 99.90%)d 0.01(  0.00%)
    13. (0.00000) RY*( 8) O   1           s(  0.01%)p99.99( 99.99%)d 0.00(  0.00%)
    14. (0.00000) RY*( 9) O   1           s(  0.00%)p 0.00(  0.00%)d 1.00(100.00%)
    15. (0.00000) RY*(10) O   1           s(  0.00%)p 0.00(  0.00%)d 1.00(100.00%)
    16. (0.00000) RY*(11) O   1           s(  0.00%)p 1.00(  0.13%)d99.99( 99.87%)
    17. (0.00000) RY*(12) O   1           s(  0.00%)p 0.00(  0.00%)d 1.00(100.00%)
    18. (0.00000) RY*(13) O   1           s(  0.00%)p 1.00(  0.13%)d99.99( 99.87%)
    19. (0.00000) RY*(14) O   1           s(  0.00%)p 0.00(  0.00%)d 1.00(100.00%)
    20. (0.00000) RY*(15) O   1           s(  0.00%)p 0.00(  0.00%)d 1.00(100.00%)
    21. (0.00000) RY*(16) O   1           s(  0.00%)p 0.00(  0.00%)d 1.00(100.00%)
    22. (0.00000) RY*(17) O   1           s(  0.00%)p 1.00(  0.12%)d99.99( 99.88%)
[...]
                                            0.0000  0.0000  0.0000
     6. (0.00000) RY*( 1) O   1           s( 99.97%)p 0.00(  0.03%)d 0.00(  0.00%)
     7. (0.00000) RY*( 2) O   1           s(100.00%)
     8. (0.00000) RY*( 3) O   1           s(  0.00%)p 1.00(100.00%)d 0.00(  0.00%)
     9. (0.00000) RY*( 4) O   1           s(  0.00%)p 1.00(100.00%)
    10. (0.00000) RY*( 5) O   1           s(  0.00%)p 1.00(100.00%)d 0.00(  0.00%)
    11. (0.00000) RY*( 6) O   1           s(  0.00%)p 1.00(100.00%)
    12. (0.00000) RY*( 7) O   1           s(  0.04%)p99.99( 99.96%)d 0.01(  0.00%)
    13. (0.00000) RY*( 8) O   1           s(  0.00%)p 1.00(100.00%)
    14. (0.00000) RY*( 9) O   1           s(  0.00%)p 0.00(  0.00%)d 1.00(100.00%)
    15. (0.00000) RY*(10) O   1           s(  0.00%)p 0.00(  0.00%)d 1.00(100.00%)
    16. (0.00000) RY*(11) O   1           s(  0.00%)p 1.00(  0.11%)d99.99( 99.89%)
    17. (0.00000) RY*(12) O   1           s(  0.00%)p 0.00(  0.00%)d 1.00(100.00%)
    18. (0.00000) RY*(13) O   1           s(  0.00%)p 1.00(  0.11%)d99.99( 99.89%)
    19. (0.00000) RY*(14) O   1           s(  0.00%)p 0.00(  0.00%)d 1.00(100.00%)
    20. (0.00000) RY*(15) O   1           s(  0.00%)p 0.00(  0.00%)d 1.00(100.00%)
    21. (0.00000) RY*(16) O   1           s(  0.00%)p 0.00(  0.00%)d 1.00(100.00%)
    22. (0.00000) RY*(17) O   1           s(  0.00%)p 1.00(  0.09%)d99.99( 99.91%)
    23. (0.00000) RY*(18) O   1           s(  0.01%)p 0.91(  0.01%)d99.99( 99.97%)
    24. (0.00159) RY*( 1) H   2           s(  0.00%)p 1.00(100.00%)
                                            0.0000  0.0000  0.0000  0.9961  0.0888
                                            0.0000  0.0000  0.0000  0.0000
    25. (0.00159) RY*( 2) H   2           s(  0.00%)p 1.00(100.00%)
                                            0.0000  0.0000  0.0000  0.0000  0.0000
                                            0.9961  0.0888  0.0000  0.0000
    26. (0.00064) RY*( 3) H   2           s( 28.36%)p 2.53( 71.64%)
                                           -0.0250  0.5319 -0.0053 -0.0000 -0.0000
                                           -0.0000 -0.0000 -0.7851  0.3163
    27. (0.00003) RY*( 4) H   2           s( 79.56%)p 0.26( 20.44%)
    28. (0.00000) RY*( 5) H   2           s( 68.88%)p 0.45( 31.12%)
    29. (0.00000) RY*( 6) H   2           s(  0.00%)p 1.00(100.00%)
    30. (0.00000) RY*( 7) H   2           s(  0.00%)p 1.00(100.00%)
    31. (0.00000) RY*( 8) H   2           s( 23.60%)p 3.24( 76.40%)
    32. (0.00000) BD*( 1) O   1 - H   2  
                ( 30.30%)   0.5505* O   1 s( 21.64%)p 3.62( 78.26%)d 0.00(  0.11%)
                ( 69.70%)  -0.8348* H   2 s( 99.60%)p 0.00(  0.40%)


 NHO Directionality and "Bond Bending" (deviations from line of nuclear centers)

         [Thresholds for printing:  angular deviation  >  1.0 degree]
                                    hybrid p-character > 25.0%
                                    orbital occupancy  >  0.10e

                                Line of Centers        Hybrid 1              Hybrid 2
                                ---------------  -------------------   ------------------
                NBO               Theta   Phi    Theta   Phi    Dev    Theta   Phi    Dev
 ========================================================================================
     4. LP (   2) O   1             --     --     90.0    0.0   --       --     --    --
     5. LP (   3) O   1             --     --     90.0   90.0   --       --     --    --


 Second Order Perturbation Theory Analysis of Fock Matrix in NBO Basis

     Threshold for printing:   0.25 kcal/mol
                                                                              E(2)  E(j)-E(i) F(i,j)
         Donor NBO (i)                     Acceptor NBO (j)                 kcal/mol   a.u.    a.u. 
 ===================================================================================================

 within unit  1
   2. CR (   1) O   1                / 27. RY*(   4) H   2                    0.39   19.66    0.111
   3. LP (   1) O   1                / 26. RY*(   3) H   2                    0.43    1.12    0.028
   4. LP (   2) O   1                / 24. RY*(   1) H   2                    1.21    1.21    0.048
   4. LP (   2) O   1                / 30. RY*(   7) H   2                    0.36    1.33    0.028
   5. LP (   3) O   1                / 25. RY*(   2) H   2                    1.21    1.21    0.048
   5. LP (   3) O   1                / 29. RY*(   6) H   2                    0.36    1.33    0.028


 Natural Bond Orbitals (Summary):

                                                            Principal Delocalizations
           NBO                        Occupancy    Energy   (geminal,vicinal,remote)
 ====================================================================================
 Molecular unit  1  (HO)
     1. BD (   1) O   1 - H   2          1.00000    -0.37905   
     2. CR (   1) O   1                  0.99997   -18.63708  27(v)
     3. LP (   1) O   1                  0.99936    -0.48043  26(v)
     4. LP (   2) O   1                  0.99841     0.04037  24(v),30(v)
     5. LP (   3) O   1                  0.99841     0.04037  25(v),29(v)
     6. RY*(   1) O   1                  0.00000     2.21837   
     7. RY*(   2) O   1                  0.00000     0.76082   
     8. RY*(   3) O   1                  0.00000     0.81407   
     9. RY*(   4) O   1                  0.00000     1.00943   
    10. RY*(   5) O   1                  0.00000     0.81407   
    11. RY*(   6) O   1                  0.00000     1.00943   
    12. RY*(   7) O   1                  0.00000     0.88049   
    13. RY*(   8) O   1                  0.00000     1.17391   
    14. RY*(   9) O   1                  0.00000     1.35616   
    15. RY*(  10) O   1                  0.00000     3.30856   
    16. RY*(  11) O   1                  0.00000     1.46252   
    17. RY*(  12) O   1                  0.00000     3.41501   
    18. RY*(  13) O   1                  0.00000     1.46252   
    19. RY*(  14) O   1                  0.00000     3.41501   
    20. RY*(  15) O   1                  0.00000     1.35616   
    21. RY*(  16) O   1                  0.00000     3.30856   
    22. RY*(  17) O   1                  0.00000     2.07272   
    23. RY*(  18) O   1                  0.00000     3.41831   
    24. RY*(   1) H   2                  0.00159     1.24752   
    25. RY*(   2) H   2                  0.00159     1.24752   
    26. RY*(   3) H   2                  0.00064     0.64254   
    27. RY*(   4) H   2                  0.00003     1.02002   
    28. RY*(   5) H   2                  0.00000     0.87823   
    29. RY*(   6) H   2                  0.00000     1.37083   
    30. RY*(   7) H   2                  0.00000     1.37083   
    31. RY*(   8) H   2                  0.00000     1.68947   
    32. BD*(   1) O   1 - H   2          0.00000     0.79969   
       -------------------------------
              Total Lewis    4.99615  ( 99.9230%)
        Valence non-Lewis    0.00000  (  0.0000%)
        Rydberg non-Lewis    0.00385  (  0.0770%)
       -------------------------------
            Total unit  1    5.00000  (100.0000%)
           Charge unit  1   -0.50000
 Leave Link  607 at Mon Aug  3 15:50:37 2020, MaxMem=   524288000 cpu:               2.6 elap:               0.4
 (Enter /home/ubuntu/g16/l701.exe)
 ... and contract with generalized density number  0.
 Compute integral second derivatives.
 Leave Link  701 at Mon Aug  3 15:50:37 2020, MaxMem=   524288000 cpu:               1.2 elap:               0.2
 (Enter /home/ubuntu/g16/l702.exe)
 L702 exits ... SP integral derivatives will be done elsewhere.
 Leave Link  702 at Mon Aug  3 15:50:37 2020, MaxMem=   524288000 cpu:               0.1 elap:               0.0
 (Enter /home/ubuntu/g16/l703.exe)
 Integral derivatives from FoFJK, PRISM(SPDF).
 Compute integral second derivatives, UseDBF=F ICtDFT=           0.
 Calling FoFJK, ICntrl=    100127 FMM=F ISym2X=1 I1Cent= 0 IOpClX= 1 NMat=1 NMatS=1 NMatT=0.
 FoFJK:  IHMeth= 1 ICntrl=  100127 DoSepK=F KAlg= 0 I1Cent=           0 FoldK=F
 IRaf=         0 NMat=       1 IRICut=       1 DoRegI=T DoRafI=F ISym2E= 1 IDoP0=0 IntGTp=1.
 FoFCou: FMM=F IPFlag=           0 FMFlag=      100000 FMFlg1=         800
         NFxFlg=           0 DoJE=F BraDBF=F KetDBF=F FulRan=T
         wScrn=  0.000000 ICntrl=    100127 IOpCl=  1 I1Cent=           0 NGrid=           0
         NMat0=    1 NMatS0=      1 NMatT0=    0 NMatD0=    1 NMtDS0=    0 NMtDT0=    0
 Petite list used in FoFCou.
 Leave Link  703 at Mon Aug  3 15:50:38 2020, MaxMem=   524288000 cpu:               2.4 elap:               0.3
 (Enter /home/ubuntu/g16/l716.exe)
 Dipole        = 3.08035992D-17 1.82380658D-16-5.54331510D-01
 Polarizability= 2.49143439D+01-6.51813355D-17 2.49143439D+01
                 1.65138863D-11-5.07623450D-11 1.83443072D+01
 Full mass-weighted force constant matrix:
 Low frequencies ---   -0.0020   -0.0020   -0.0011    1.6930    1.6930 3734.6103
 Diagonal vibrational polarizability:
        0.0000000       0.0000000       0.1602965
 Harmonic frequencies (cm**-1), IR intensities (KM/Mole), Raman scattering
 activities (A**4/AMU), depolarization ratios for plane and unpolarized
 incident light, reduced masses (AMU), force constants (mDyne/A),
 and normal coordinates:
                      1
                     SG
 Frequencies --   3734.6103
 Red. masses --      1.0671
 Frc consts  --      8.7688
 IR Inten    --     83.0771
  Atom  AN      X      Y      Z
     1   8    -0.00  -0.00  -0.06
     2   1     0.00   0.00   1.00

 -------------------
 - Thermochemistry -
 -------------------
 Temperature   298.150 Kelvin.  Pressure   1.00000 Atm.
 Atom     1 has atomic number  8 and mass  15.99491
 Atom     2 has atomic number  1 and mass   1.00783
 Molecular mass:    17.00274 amu.
 Principal axes and moments of inertia in atomic units:
                           1         2         3
     Eigenvalues --    -0.00000   3.18333   3.18333
           X            0.00000   0.88850  -0.45888
           Y            0.00000   0.45888   0.88850
           Z            1.00000  -0.00000  -0.00000
 This molecule is a prolate symmetric top.
 Rotational symmetry number  1.
 Rotational temperature (Kelvin)     27.20858
 Rotational constant (GHZ):         566.934724
 Zero-point vibrational energy      22337.9 (Joules/Mol)
                                    5.33889 (Kcal/Mol)
 Vibrational temperatures:   5373.27
          (Kelvin)
 
 Zero-point correction=                           0.008508 (Hartree/Particle)
 Thermal correction to Energy=                    0.010869
 Thermal correction to Enthalpy=                  0.011813
 Thermal correction to Gibbs Free Energy=        -0.007754
 Sum of electronic and zero-point Energies=            -75.808426
 Sum of electronic and thermal Energies=               -75.806065
 Sum of electronic and thermal Enthalpies=             -75.805121
 Sum of electronic and thermal Free Energies=          -75.824688
 
                     E (Thermal)             CV                S
                      KCal/Mol        Cal/Mol-Kelvin    Cal/Mol-Kelvin
 Total                    6.820              4.968             41.181
 Electronic               0.000              0.000              0.000
 Translational            0.889              2.981             34.437
 Rotational               0.592              1.987              6.745
 Vibrational              5.339              0.000              0.000
                       Q            Log10(Q)             Ln(Q)
 Total Bot       0.368574D+04          3.566525          8.212227
 Total V=0       0.301968D+08          7.479961         17.223247
 Vib (Bot)       0.122057D-03         -3.913436         -9.011020
 Vib (V=0)       0.100000D+01          0.000000          0.000000
 Electronic      0.100000D+01          0.000000          0.000000
 Translational   0.275570D+07          6.440232         14.829183
 Rotational      0.109579D+02          1.039729          2.394064
 ***** Axes restored to original set *****
 -------------------------------------------------------------------
 Center     Atomic                   Forces (Hartrees/Bohr)
 Number     Number              X              Y              Z
 -------------------------------------------------------------------
      1        8          -0.000000144    0.000000428    0.000000014
      2        1           0.000000144   -0.000000428   -0.000000014
 -------------------------------------------------------------------
 Cartesian Forces:  Max     0.000000428 RMS     0.000000261
 Force constants in Cartesian coordinates: 
                1             2             3             4             5 
      1  0.508482D-01
      2 -0.151109D+00  0.449063D+00
      3 -0.506026D-02  0.150380D-01  0.503686D-03
      4 -0.508482D-01  0.151109D+00  0.506026D-02  0.508482D-01
      5  0.151109D+00 -0.449063D+00 -0.150380D-01 -0.151109D+00  0.449063D+00
      6  0.506026D-02 -0.150380D-01 -0.503686D-03 -0.506026D-02  0.150380D-01
                6 
      6  0.503686D-03
 FormGI is forming the generalized inverse of G from B-inverse, IUseBI=4.
 Force constants in internal coordinates: 
                1 
      1  0.500415D+00
 Leave Link  716 at Mon Aug  3 15:50:38 2020, MaxMem=   524288000 cpu:               0.2 elap:               0.0
 (Enter /home/ubuntu/g16/l103.exe)

 GradGradGradGradGradGradGradGradGradGradGradGradGradGradGradGradGradGrad
 Berny optimization.
 Red2BG is reusing G-inverse.
 Internal  Forces:  Max     0.000000452 RMS     0.000000452
 Search for a local minimum.
 Step number   1 out of a maximum of    2
 All quantities printed in internal units (Hartrees-Bohrs-Radians)
 Second derivative matrix not updated -- analytic derivatives used.
 The second derivative matrix:
                          R1
           R1           0.50041
 ITU=  0
     Eigenvalues ---    0.50041
 Angle between quadratic step and forces=  90.00 degrees.
 Linear search not attempted -- first point.
 Iteration  1 RMS(Cart)=  0.00000064 RMS(Int)=  0.00000000
 ITry= 1 IFail=0 DXMaxC= 4.27D-07 DCOld= 1.00D+10 DXMaxT= 3.00D-01 DXLimC= 3.00D+00 Rises=F
 ClnCor:  largest displacement from symmetrization is 1.99D-15 for atom     2.
 Variable       Old X    -DE/DX   Delta X   Delta X   Delta X     New X
                                 (Linear)    (Quad)   (Total)
    R1        1.83239   0.00000   0.00000   0.00000   0.00000   1.83239
         Item               Value     Threshold  Converged?
 Maximum Force            0.000000     0.000450     YES
 RMS     Force            0.000000     0.000300     YES
 Maximum Displacement     0.000000     0.001800     YES
 RMS     Displacement     0.000001     0.001200     YES
 Predicted change in Energy=-2.038000D-13
 Optimization completed.
    -- Stationary point found.
                           ----------------------------
                           !   Optimized Parameters   !
                           ! (Angstroms and Degrees)  !
 --------------------------                            --------------------------
 ! Name  Definition              Value          Derivative Info.                !
 --------------------------------------------------------------------------------
 ! R1    R(1,2)                  0.9697         -DE/DX =    0.0                 !
 --------------------------------------------------------------------------------
 GradGradGradGradGradGradGradGradGradGradGradGradGradGradGradGradGradGrad

 Leave Link  103 at Mon Aug  3 15:50:38 2020, MaxMem=   524288000 cpu:               0.0 elap:               0.0
 (Enter /home/ubuntu/g16/l9999.exe)

 ----------------------------------------------------------------------

 Electric dipole moment (input orientation):
 (Debye = 10**-18 statcoulomb cm , SI units = C m)
                  (au)            (Debye)         (10**-30 SI)
   Tot        0.554332D+00      0.140897D+01      0.469982D+01
   x          0.176702D+00      0.449132D+00      0.149814D+01
   y         -0.525120D+00     -0.133472D+01     -0.445215D+01
   z         -0.175849D-01     -0.446964D-01     -0.149091D+00

 Dipole polarizability, Alpha (input orientation).
 (esu units = cm**3 , SI units = C**2 m**2 J**-1)
 Alpha(0;0):
               (au)            (10**-24 esu)      (10**-40 SI)
   iso        0.227243D+02      0.336740D+01      0.374674D+01
   aniso      0.657004D+01      0.973579D+00      0.108325D+01
   xx         0.242468D+02      0.359300D+01      0.399775D+01
   yx         0.198394D+01      0.293990D+00      0.327108D+00
   yy         0.190185D+02      0.281825D+01      0.313573D+01
   zx         0.664371D-01      0.984496D-02      0.109540D-01
   zy        -0.197436D+00     -0.292570D-01     -0.325529D-01
   zz         0.249077D+02      0.369095D+01      0.410673D+01

 ----------------------------------------------------------------------

 Dipole orientation:
     8          5.89671831          8.65069835         -0.27074251
     1          5.89671831          8.65069835          1.56164302

 Electric dipole moment (dipole orientation):
 (Debye = 10**-18 statcoulomb cm , SI units = C m)
                  (au)            (Debye)         (10**-30 SI)
   Tot        0.554332D+00      0.140897D+01      0.469982D+01
   x          0.000000D+00      0.000000D+00      0.000000D+00
   y          0.000000D+00      0.000000D+00      0.000000D+00
   z          0.554332D+00      0.140897D+01      0.469982D+01

 Dipole polarizability, Alpha (dipole orientation).
 (esu units = cm**3 , SI units = C**2 m**2 J**-1)
 Alpha(0;0):
               (au)            (10**-24 esu)      (10**-40 SI)
   iso        0.227243D+02      0.336740D+01      0.374674D+01
   aniso      0.657004D+01      0.973579D+00      0.108325D+01
   xx         0.249143D+02      0.369192D+01      0.410782D+01
   yx         0.000000D+00      0.000000D+00      0.000000D+00
   yy         0.249143D+02      0.369192D+01      0.410782D+01
   zx         0.000000D+00      0.000000D+00      0.000000D+00
   zy         0.000000D+00      0.000000D+00      0.000000D+00
   zz         0.183443D+02      0.271835D+01      0.302457D+01

 ----------------------------------------------------------------------
 1\1\GINC-192-168-10-17\Freq\UB3LYP\Aug-CC-pVDZ\H1O1(1-)\UBUNTU\03-Aug-
 2020\0\\#P Geom=AllCheck Guess=TCheck SCRF=Check GenChk UB3LYP/Aug-CC-
 pVDZ Freq\\HO-_UB3LYP-aug-cc-pVDZ\\-1,1\O,4.1749031479,1.4440290409,3.
 3463800803\H,4.4839968521,0.5254709591,3.3156199197\\Version=ES64L-G16
 RevA.03\State=1-SG\HF=-75.816934\S2=0.\S2-1=0.\S2A=0.\RMSD=2.419e-09\R
 MSF=2.607e-07\ZeroPoint=0.0085081\Thermal=0.0108685\Dipole=0.1767021,-
 0.5251196,-0.0175849\DipoleDeriv=-1.1370546,-0.1615306,-0.0054092,-0.1
 615306,-0.7113763,0.0160751,-0.0054092,0.0160751,-1.1908711,0.1370546,
 0.1615306,0.0054092,0.1615306,-0.2886237,-0.0160751,0.0054092,-0.01607
 51,0.1908711\Polar=24.2467504,1.9839403,19.0185124,0.0664371,-0.197436
 3,24.9077323\Quadrupole=-0.4101016,0.9982552,-0.5881536,-0.534424,-0.0
 178965,0.0531844\PG=C*V [C*(H1O1)]\NImag=0\\0.05084817,-0.15110920,0.4
 4906320,-0.00506026,0.01503797,0.00050369,-0.05084817,0.15110920,0.005
 06026,0.05084817,0.15110920,-0.44906320,-0.01503797,-0.15110920,0.4490
 6320,0.00506026,-0.01503797,-0.00050369,-0.00506026,0.01503797,0.00050
 369\\0.00000014,-0.00000043,-0.00000001,-0.00000014,0.00000043,0.00000
 001\\\@


 ALL MY ATTEMPTS TO ADAPT THE THEORETICAL FOUNDATIONS OF PHYSICS
 TO THESE NEW NOTIONS FAILED COMPLETELY. IT WAS AS IF THE GROUND HAD
 BEEN PULLED OUT FROM UNDER ONE WITH NO FIRM FOUNDATION TO BE SEEN ANYWHERE,
 UPON WHICH ONE COULD HAVE BUILT.  -- A.EINSTEIN
 Job cpu time:       0 days  0 hours  0 minutes 18.5 seconds.
 Elapsed time:       0 days  0 hours  0 minutes  2.6 seconds.
 File lengths (MBytes):  RWF=      6 Int=      0 D2E=      0 Chk=      1 Scr=      1
 Normal termination of Gaussian 16 at Mon Aug  3 15:50:38 2020.
