 Entering Gaussian System, Link 0=/home/ubuntu/g16/g16
 Input=HOAc_UB3LYP-aug-cc-pVDZ-Opt.gjf
 Output=HOAc_UB3LYP-aug-cc-pVDZ-Opt.log
 Initial command:
 /home/ubuntu/g16/l1.exe "/home/ubuntu/g16/Gau-24029.inp" -scrdir="/home/ubuntu/g16/"
 Entering Link 1 = /home/ubuntu/g16/l1.exe PID=     24031.
  
 Copyright (c) 1988,1990,1992,1993,1995,1998,2003,2009,2016,
            Gaussian, Inc.  All Rights Reserved.
  
 This is part of the Gaussian(R) 16 program.  It is based on
 the Gaussian(R) 09 system (copyright 2009, Gaussian, Inc.),
 the Gaussian(R) 03 system (copyright 2003, Gaussian, Inc.),
 the Gaussian(R) 98 system (copyright 1998, Gaussian, Inc.),
 the Gaussian(R) 94 system (copyright 1995, Gaussian, Inc.),
 the Gaussian 92(TM) system (copyright 1992, Gaussian, Inc.),
 the Gaussian 90(TM) system (copyright 1990, Gaussian, Inc.),
 the Gaussian 88(TM) system (copyright 1988, Gaussian, Inc.),
 the Gaussian 86(TM) system (copyright 1986, Carnegie Mellon
 University), and the Gaussian 82(TM) system (copyright 1983,
 Carnegie Mellon University). Gaussian is a federally registered
 trademark of Gaussian, Inc.
  
 This software contains proprietary and confidential information,
 including trade secrets, belonging to Gaussian, Inc.
  
 This software is provided under written license and may be
 used, copied, transmitted, or stored only in accord with that
 written license.
  
 The following legend is applicable only to US Government
 contracts under FAR:
  
                    RESTRICTED RIGHTS LEGEND
  
 Use, reproduction and disclosure by the US Government is
 subject to restrictions as set forth in subparagraphs (a)
 and (c) of the Commercial Computer Software - Restricted
 Rights clause in FAR 52.227-19.
  
 Gaussian, Inc.
 340 Quinnipiac St., Bldg. 40, Wallingford CT 06492
  
  
 ---------------------------------------------------------------
 Warning -- This program may not be used in any manner that
 competes with the business of Gaussian, Inc. or will provide
 assistance to any competitor of Gaussian, Inc.  The licensee
 of this program is prohibited from giving any competitor of
 Gaussian, Inc. access to this program.  By using this program,
 the user acknowledges that Gaussian, Inc. is engaged in the
 business of creating and licensing software in the field of
 computational chemistry and represents and warrants to the
 licensee that it is not a competitor of Gaussian, Inc. and that
 it will not use this program in any manner prohibited above.
 ---------------------------------------------------------------
  

 Cite this work as:
 Gaussian 16, Revision A.03,
 M. J. Frisch, G. W. Trucks, H. B. Schlegel, G. E. Scuseria, 
 M. A. Robb, J. R. Cheeseman, G. Scalmani, V. Barone, 
 G. A. Petersson, H. Nakatsuji, X. Li, M. Caricato, A. V. Marenich, 
 J. Bloino, B. G. Janesko, R. Gomperts, B. Mennucci, H. P. Hratchian, 
 J. V. Ortiz, A. F. Izmaylov, J. L. Sonnenberg, D. Williams-Young, 
 F. Ding, F. Lipparini, F. Egidi, J. Goings, B. Peng, A. Petrone, 
 T. Henderson, D. Ranasinghe, V. G. Zakrzewski, J. Gao, N. Rega, 
 G. Zheng, W. Liang, M. Hada, M. Ehara, K. Toyota, R. Fukuda, 
 J. Hasegawa, M. Ishida, T. Nakajima, Y. Honda, O. Kitao, H. Nakai, 
 T. Vreven, K. Throssell, J. A. Montgomery, Jr., J. E. Peralta, 
 F. Ogliaro, M. J. Bearpark, J. J. Heyd, E. N. Brothers, K. N. Kudin, 
 V. N. Staroverov, T. A. Keith, R. Kobayashi, J. Normand, 
 K. Raghavachari, A. P. Rendell, J. C. Burant, S. S. Iyengar, 
 J. Tomasi, M. Cossi, J. M. Millam, M. Klene, C. Adamo, R. Cammi, 
 J. W. Ochterski, R. L. Martin, K. Morokuma, O. Farkas, 
 J. B. Foresman, and D. J. Fox, Gaussian, Inc., Wallingford CT, 2016.
 
 ******************************************
 Gaussian 16:  ES64L-G16RevA.03 25-Dec-2016
                 1-Aug-2020 
 ******************************************
 %chk=HOAc_UB3LYP-aug-cc-pVDZ-Opt.chk
 %mem=500MW
 %nproc=7
 Will use up to    7 processors via shared memory.
 ----------------------------------------------------------------------
 #p opt=(maxcycles=777) freq ub3lyp/aug-cc-pVDZ pop=(Bonding,AllOrbital
 s,mk,no,nboread)
 ----------------------------------------------------------------------
 1/6=777,18=20,19=15,26=3,38=1/1,3;
 2/9=110,12=2,17=6,18=5,40=1/2;
 3/5=16,7=10,11=2,25=1,30=1,71=1,74=-5,116=2/1,2,3;
 4//1;
 5/5=2,38=5/2;
 6/7=2,8=2,9=2,10=2,15=8,20=1,22=-1,27=20,28=1,31=1,40=2,96=-1/1,2,7;
 7//1,2,3,16;
 1/6=777,18=20,19=15,26=3/3(2);
 2/9=110/2;
 99//99;
 2/9=110/2;
 3/5=16,7=10,11=2,25=1,30=1,71=1,74=-5,116=2/1,2,3;
 4/5=5,16=3,69=1/1;
 5/5=2,38=5/2;
 7//1,2,3,16;
 1/6=777,18=20,19=15,26=3/3(-5);
 2/9=110/2;
 6/7=2,8=2,9=2,10=2,15=8,19=2,20=1,22=-1,27=20,28=1,31=1,40=2,96=-1/1,2,7;
 99/9=1/99;
 Leave Link    1 at Sat Aug  1 14:54:54 2020, MaxMem=   524288000 cpu:               0.3 elap:               0.1
 (Enter /home/ubuntu/g16/l101.exe)
 -----------------------
 HOAc_UB3LYP-aug-cc-pVDZ
 -----------------------
 Symbolic Z-matrix:
 Charge =  0 Multiplicity = 1
 C                     4.12492  -0.62467   2.06478 
 H                     4.49551  -1.65277   2.07577 
 H                     4.47541  -0.10658   1.16228 
 H                     3.02657  -0.61607   2.04575 
 C                     4.61923   0.09907   3.288 
 O                     5.31964  -0.36695   4.1586 
 O                     4.1825    1.38848   3.3204 
 H                     4.53933   1.78429   4.13224 
 
 ITRead=  0  0  0  0  0  0  0  0
 MicOpt= -1 -1 -1 -1 -1 -1 -1 -1
 NAtoms=      8 NQM=        8 NQMF=       0 NMMI=      0 NMMIF=      0
                NMic=       0 NMicF=      0.
                    Isotopes and Nuclear Properties:
 (Nuclear quadrupole moments (NQMom) in fm**2, nuclear magnetic moments (NMagM)
  in nuclear magnetons)

  Atom         1           2           3           4           5           6           7           8
 IAtWgt=          12           1           1           1          12          16          16           1
 AtmWgt=  12.0000000   1.0078250   1.0078250   1.0078250  12.0000000  15.9949146  15.9949146   1.0078250
 NucSpn=           0           1           1           1           0           0           0           1
 AtZEff=  -0.0000000  -0.0000000  -0.0000000  -0.0000000  -0.0000000  -0.0000000  -0.0000000  -0.0000000
 NQMom=    0.0000000   0.0000000   0.0000000   0.0000000   0.0000000   0.0000000   0.0000000   0.0000000
 NMagM=    0.0000000   2.7928460   2.7928460   2.7928460   0.0000000   0.0000000   0.0000000   2.7928460
 AtZNuc=   6.0000000   1.0000000   1.0000000   1.0000000   6.0000000   8.0000000   8.0000000   1.0000000
 Leave Link  101 at Sat Aug  1 14:54:54 2020, MaxMem=   524288000 cpu:               0.6 elap:               0.1
 (Enter /home/ubuntu/g16/l103.exe)

 GradGradGradGradGradGradGradGradGradGradGradGradGradGradGradGradGradGrad
 Berny optimization.
 Initialization pass.
                           ----------------------------
                           !    Initial Parameters    !
                           ! (Angstroms and Degrees)  !
 --------------------------                            --------------------------
 ! Name  Definition              Value          Derivative Info.                !
 --------------------------------------------------------------------------------
 ! R1    R(1,2)                  1.0929         estimate D2E/DX2                !
 ! R2    R(1,3)                  1.0981         estimate D2E/DX2                !
 ! R3    R(1,4)                  1.0985         estimate D2E/DX2                !
 ! R4    R(1,5)                  1.5048         estimate D2E/DX2                !
 ! R5    R(5,6)                  1.2107         estimate D2E/DX2                !
 ! R6    R(5,7)                  1.3617         estimate D2E/DX2                !
 ! R7    R(7,8)                  0.9711         estimate D2E/DX2                !
 ! A1    A(2,1,3)              110.113          estimate D2E/DX2                !
 ! A2    A(2,1,4)              110.2773         estimate D2E/DX2                !
 ! A3    A(2,1,5)              109.4434         estimate D2E/DX2                !
 ! A4    A(3,1,4)              107.5295         estimate D2E/DX2                !
 ! A5    A(3,1,5)              109.6534         estimate D2E/DX2                !
 ! A6    A(4,1,5)              109.8005         estimate D2E/DX2                !
 ! A7    A(1,5,6)              126.1188         estimate D2E/DX2                !
 ! A8    A(1,5,7)              111.6784         estimate D2E/DX2                !
 ! A9    A(6,5,7)              122.2027         estimate D2E/DX2                !
 ! A10   A(5,7,8)              106.7368         estimate D2E/DX2                !
 ! D1    D(2,1,5,6)              0.0656         estimate D2E/DX2                !
 ! D2    D(2,1,5,7)           -179.9896         estimate D2E/DX2                !
 ! D3    D(3,1,5,6)           -120.8181         estimate D2E/DX2                !
 ! D4    D(3,1,5,7)             59.1266         estimate D2E/DX2                !
 ! D5    D(4,1,5,6)            121.2445         estimate D2E/DX2                !
 ! D6    D(4,1,5,7)            -58.8108         estimate D2E/DX2                !
 ! D7    D(1,5,7,8)            179.941          estimate D2E/DX2                !
 ! D8    D(6,5,7,8)             -0.1117         estimate D2E/DX2                !
 --------------------------------------------------------------------------------
 Trust Radius=3.00D-01 FncErr=1.00D-07 GrdErr=1.00D-06 EigMax=2.50D+02 EigMin=1.00D-04
 Number of steps in this run=    100 maximum allowed number of steps=    100.
 GradGradGradGradGradGradGradGradGradGradGradGradGradGradGradGradGradGrad

 Leave Link  103 at Sat Aug  1 14:54:54 2020, MaxMem=   524288000 cpu:               0.1 elap:               0.0
 (Enter /home/ubuntu/g16/l202.exe)
                          Input orientation:                          
 ---------------------------------------------------------------------
 Center     Atomic      Atomic             Coordinates (Angstroms)
 Number     Number       Type             X           Y           Z
 ---------------------------------------------------------------------
      1          6           0        4.124920   -0.624670    2.064780
      2          1           0        4.495510   -1.652770    2.075770
      3          1           0        4.475410   -0.106580    1.162280
      4          1           0        3.026570   -0.616070    2.045750
      5          6           0        4.619230    0.099070    3.288000
      6          8           0        5.319640   -0.366950    4.158600
      7          8           0        4.182500    1.388480    3.320400
      8          1           0        4.539330    1.784290    4.132240
 ---------------------------------------------------------------------
                    Distance matrix (angstroms):
                    1          2          3          4          5
     1  C    0.000000
     2  H    1.092908   0.000000
     3  H    1.098074   1.795988   0.000000
     4  H    1.098549   1.798175   1.771789   0.000000
     5  C    1.504795   2.133952   2.140482   2.142703   0.000000
     6  O    2.424429   2.582771   3.123852   3.127997   1.210658
     7  O    2.373325   3.300951   2.641682   2.641804   1.361749
     8  H    3.201439   4.005542   3.521383   3.521876   1.886555
                    6          7          8
     6  O    0.000000
     7  O    2.253265   0.000000
     8  H    2.288539   0.971122   0.000000
 Stoichiometry    C2H4O2
 Framework group  C1[X(C2H4O2)]
 Deg. of freedom    18
 Full point group                 C1      NOp   1
 Largest Abelian subgroup         C1      NOp   1
 Largest concise Abelian subgroup C1      NOp   1
                         Standard orientation:                         
 ---------------------------------------------------------------------
 Center     Atomic      Atomic             Coordinates (Angstroms)
 Number     Number       Type             X           Y           Z
 ---------------------------------------------------------------------
      1          6           0       -1.395887   -0.124950   -0.000256
      2          1           0       -1.926677    0.830408   -0.000979
      3          1           0       -1.671417   -0.709322    0.887641
      4          1           0       -1.673396   -0.715332   -0.884137
      5          6           0        0.087779    0.126334   -0.000374
      6          8           0        0.628086    1.209737   -0.000024
      7          8           0        0.795055   -1.037333    0.000280
      8          1           0        1.735012   -0.793292   -0.000799
 ---------------------------------------------------------------------
 Rotational constants (GHZ):          11.2628659           9.4086032           5.2962502
 Leave Link  202 at Sat Aug  1 14:54:54 2020, MaxMem=   524288000 cpu:               0.1 elap:               0.0
 (Enter /home/ubuntu/g16/l301.exe)
 Standard basis: Aug-CC-pVDZ (5D, 7F)
 Ernie: Thresh=  0.10000D-02 Tol=  0.10000D-05 Strict=F.
 Ernie:  8 primitive shells out of 128 were deleted.
 There are   136 symmetry adapted cartesian basis functions of A   symmetry.
 There are   128 symmetry adapted basis functions of A   symmetry.
   128 basis functions,   216 primitive gaussians,   136 cartesian basis functions
    16 alpha electrons       16 beta electrons
       nuclear repulsion energy       120.6823373672 Hartrees.
 IExCor=  402 DFT=T Ex+Corr=B3LYP ExCW=0 ScaHFX=  0.200000
 ScaDFX=  0.800000  0.720000  1.000000  0.810000 ScalE2=  1.000000  1.000000
 IRadAn=      5 IRanWt=     -1 IRanGd=            0 ICorTp=0 IEmpDi=  4
 NAtoms=    8 NActive=    8 NUniq=    8 SFac= 1.00D+00 NAtFMM=   60 NAOKFM=F Big=F
 Integral buffers will be    131072 words long.
 Raffenetti 2 integral format.
 Two-electron integral symmetry is turned on.
 Leave Link  301 at Sat Aug  1 14:54:54 2020, MaxMem=   524288000 cpu:               0.2 elap:               0.0
 (Enter /home/ubuntu/g16/l302.exe)
 NPDir=0 NMtPBC=     1 NCelOv=     1 NCel=       1 NClECP=     1 NCelD=      1
         NCelK=      1 NCelE2=     1 NClLst=     1 CellRange=     0.0.
 One-electron integrals computed using PRISM.
 One-electron integral symmetry used in STVInt
 NBasis=   128 RedAO= T EigKep=  1.07D-04  NBF=   128
 NBsUse=   128 1.00D-06 EigRej= -1.00D+00 NBFU=   128
 Precomputing XC quadrature grid using
 IXCGrd= 4 IRadAn=           5 IRanWt=          -1 IRanGd=           0 AccXCQ= 0.00D+00.
 Generated NRdTot=       0 NPtTot=           0 NUsed=           0 NTot=          32
 NSgBfM=   136   136   136   136   136 MxSgAt=     8 MxSgA2=     8.
 Leave Link  302 at Sat Aug  1 14:54:55 2020, MaxMem=   524288000 cpu:               1.3 elap:               0.2
 (Enter /home/ubuntu/g16/l303.exe)
 DipDrv:  MaxL=1.
 Leave Link  303 at Sat Aug  1 14:54:55 2020, MaxMem=   524288000 cpu:               0.2 elap:               0.0
 (Enter /home/ubuntu/g16/l401.exe)
 ExpMin= 2.97D-02 ExpMax= 1.17D+04 ExpMxC= 4.01D+02 IAcc=3 IRadAn=         5 AccDes= 0.00D+00
 Harris functional with IExCor=  402 and IRadAn=       5 diagonalized for initial guess.
 HarFok:  IExCor=  402 AccDes= 0.00D+00 IRadAn=         5 IDoV= 1 UseB2=F ITyADJ=14
 ICtDFT=  3500011 ScaDFX=  1.000000  1.000000  1.000000  1.000000
 FoFCou: FMM=F IPFlag=           0 FMFlag=      100000 FMFlg1=           0
         NFxFlg=           0 DoJE=T BraDBF=F KetDBF=T FulRan=T
         wScrn=  0.000000 ICntrl=       500 IOpCl=  0 I1Cent=   200000004 NGrid=           0
         NMat0=    1 NMatS0=      1 NMatT0=    0 NMatD0=    1 NMtDS0=    0 NMtDT0=    0
 Petite list used in FoFCou.
 Harris En= -229.149568926838    
 JPrj=0 DoOrth=F DoCkMO=F.
 Initial guess <Sx>= 0.0000 <Sy>= 0.0000 <Sz>= 0.0000 <S**2>=-0.0000 S=-0.0000
 Leave Link  401 at Sat Aug  1 14:54:55 2020, MaxMem=   524288000 cpu:               5.1 elap:               0.7
 (Enter /home/ubuntu/g16/l502.exe)
 Keep R1 and R2 ints in memory in canonical form, NReq=74909323.
 FoFCou: FMM=F IPFlag=           0 FMFlag=           0 FMFlg1=           0
         NFxFlg=           0 DoJE=F BraDBF=F KetDBF=F FulRan=T
         wScrn=  0.000000 ICntrl=       600 IOpCl=  0 I1Cent=           0 NGrid=           0
         NMat0=    1 NMatS0=   8256 NMatT0=    0 NMatD0=    1 NMtDS0=    0 NMtDT0=    0
 Symmetry not used in FoFCou.
 Two-electron integral symmetry not used.
 UHF open shell SCF:
 Using DIIS extrapolation, IDIIS=  1040.
 NGot=   524288000 LenX=   456078844 LenY=   456059907
 Requested convergence on RMS density matrix=1.00D-08 within 128 cycles.
 Requested convergence on MAX density matrix=1.00D-06.
 Requested convergence on             energy=1.00D-06.
 No special actions if energy rises.

 Cycle   1  Pass 1  IDiag  1:
 E= -228.981643975862    
 DIIS: error= 2.67D-02 at cycle   1 NSaved=   1.
 NSaved= 1 IEnMin= 1 EnMin= -228.981643975862     IErMin= 1 ErrMin= 2.67D-02
 ErrMax= 2.67D-02  0.00D+00 EMaxC= 1.00D-01 BMatC= 6.96D-01 BMatP= 6.96D-01
 IDIUse=3 WtCom= 7.33D-01 WtEn= 2.67D-01
 Coeff-Com:  0.100D+01
 Coeff-En:   0.100D+01
 Coeff:      0.100D+01
 Gap=     0.167 Goal=   None    Shift=    0.000
 Gap=     0.167 Goal=   None    Shift=    0.000
 GapD=    0.167 DampG=1.000 DampE=0.500 DampFc=0.5000 IDamp=-1.
 Damping current iteration by 5.00D-01
 RMSDP=7.20D-03 MaxDP=1.96D-01              OVMax= 2.50D-01

 Cycle   2  Pass 1  IDiag  1:
 E= -229.016876627332     Delta-E=       -0.035232651470 Rises=F Damp=T
 DIIS: error= 8.55D-03 at cycle   2 NSaved=   2.
 NSaved= 2 IEnMin= 2 EnMin= -229.016876627332     IErMin= 2 ErrMin= 8.55D-03
 ErrMax= 8.55D-03  0.00D+00 EMaxC= 1.00D-01 BMatC= 9.91D-02 BMatP= 6.96D-01
 IDIUse=3 WtCom= 9.14D-01 WtEn= 8.55D-02
 Coeff-Com:  0.235D+00 0.765D+00
 Coeff-En:   0.372D+00 0.628D+00
 Coeff:      0.247D+00 0.753D+00
 Gap=     0.280 Goal=   None    Shift=    0.000
 Gap=     0.280 Goal=   None    Shift=    0.000
 RMSDP=2.90D-03 MaxDP=1.08D-01 DE=-3.52D-02 OVMax= 1.63D-01

 Cycle   3  Pass 1  IDiag  1:
 E= -229.106673547427     Delta-E=       -0.089796920095 Rises=F Damp=F
 DIIS: error= 8.69D-03 at cycle   3 NSaved=   3.
 NSaved= 3 IEnMin= 3 EnMin= -229.106673547427     IErMin= 2 ErrMin= 8.55D-03
 ErrMax= 8.69D-03  0.00D+00 EMaxC= 1.00D-01 BMatC= 8.64D-02 BMatP= 9.91D-02
 IDIUse=3 WtCom= 9.13D-01 WtEn= 8.69D-02
 Coeff-Com:  0.115D+00 0.494D+00 0.392D+00
 Coeff-En:   0.000D+00 0.000D+00 0.100D+01
 Coeff:      0.105D+00 0.451D+00 0.444D+00
 Gap=     0.273 Goal=   None    Shift=    0.000
 Gap=     0.273 Goal=   None    Shift=    0.000
 RMSDP=1.14D-03 MaxDP=3.41D-02 DE=-8.98D-02 OVMax= 6.29D-02

 Cycle   4  Pass 1  IDiag  1:
 E= -229.123053021980     Delta-E=       -0.016379474553 Rises=F Damp=F
 DIIS: error= 3.19D-03 at cycle   4 NSaved=   4.
 NSaved= 4 IEnMin= 4 EnMin= -229.123053021980     IErMin= 4 ErrMin= 3.19D-03
 ErrMax= 3.19D-03  0.00D+00 EMaxC= 1.00D-01 BMatC= 8.36D-03 BMatP= 8.64D-02
 IDIUse=3 WtCom= 9.68D-01 WtEn= 3.19D-02
 Coeff-Com:  0.193D-01 0.104D+00 0.252D+00 0.625D+00
 Coeff-En:   0.000D+00 0.000D+00 0.755D-01 0.925D+00
 Coeff:      0.187D-01 0.101D+00 0.246D+00 0.635D+00
 Gap=     0.275 Goal=   None    Shift=    0.000
 Gap=     0.275 Goal=   None    Shift=    0.000
 RMSDP=2.92D-04 MaxDP=1.05D-02 DE=-1.64D-02 OVMax= 1.71D-02

 Cycle   5  Pass 1  IDiag  1:
 E= -229.124398824475     Delta-E=       -0.001345802496 Rises=F Damp=F
 DIIS: error= 1.12D-03 at cycle   5 NSaved=   5.
 NSaved= 5 IEnMin= 5 EnMin= -229.124398824475     IErMin= 5 ErrMin= 1.12D-03
 ErrMax= 1.12D-03  0.00D+00 EMaxC= 1.00D-01 BMatC= 1.02D-03 BMatP= 8.36D-03
 IDIUse=3 WtCom= 9.89D-01 WtEn= 1.12D-02
 Coeff-Com: -0.135D-02 0.407D-02 0.103D+00 0.396D+00 0.498D+00
 Coeff-En:   0.000D+00 0.000D+00 0.000D+00 0.775D-01 0.922D+00
 Coeff:     -0.133D-02 0.403D-02 0.102D+00 0.392D+00 0.503D+00
 Gap=     0.274 Goal=   None    Shift=    0.000
 Gap=     0.274 Goal=   None    Shift=    0.000
 RMSDP=1.06D-04 MaxDP=3.18D-03 DE=-1.35D-03 OVMax= 4.04D-03

 Cycle   6  Pass 1  IDiag  1:
 E= -229.124609858913     Delta-E=       -0.000211034438 Rises=F Damp=F
 DIIS: error= 8.68D-05 at cycle   6 NSaved=   6.
 NSaved= 6 IEnMin= 6 EnMin= -229.124609858913     IErMin= 6 ErrMin= 8.68D-05
 ErrMax= 8.68D-05  0.00D+00 EMaxC= 1.00D-01 BMatC= 7.66D-06 BMatP= 1.02D-03
 IDIUse=1 WtCom= 1.00D+00 WtEn= 0.00D+00
 Coeff-Com: -0.618D-03-0.319D-02 0.177D-01 0.691D-01 0.136D+00 0.781D+00
 Coeff:     -0.618D-03-0.319D-02 0.177D-01 0.691D-01 0.136D+00 0.781D+00
 Gap=     0.274 Goal=   None    Shift=    0.000
 Gap=     0.274 Goal=   None    Shift=    0.000
 RMSDP=1.28D-05 MaxDP=3.21D-04 DE=-2.11D-04 OVMax= 3.23D-04

 Cycle   7  Pass 1  IDiag  1:
 E= -229.124611482433     Delta-E=       -0.000001623520 Rises=F Damp=F
 DIIS: error= 1.09D-05 at cycle   7 NSaved=   7.
 NSaved= 7 IEnMin= 7 EnMin= -229.124611482433     IErMin= 7 ErrMin= 1.09D-05
 ErrMax= 1.09D-05  0.00D+00 EMaxC= 1.00D-01 BMatC= 1.26D-07 BMatP= 7.66D-06
 IDIUse=1 WtCom= 1.00D+00 WtEn= 0.00D+00
 Coeff-Com:  0.331D-04-0.701D-03 0.144D-02 0.428D-02 0.162D-01 0.133D+00
 Coeff-Com:  0.846D+00
 Coeff:      0.331D-04-0.701D-03 0.144D-02 0.428D-02 0.162D-01 0.133D+00
 Coeff:      0.846D+00
 Gap=     0.274 Goal=   None    Shift=    0.000
 Gap=     0.274 Goal=   None    Shift=    0.000
 RMSDP=1.92D-06 MaxDP=4.71D-05 DE=-1.62D-06 OVMax= 8.94D-05

 Cycle   8  Pass 1  IDiag  1:
 E= -229.124611505806     Delta-E=       -0.000000023373 Rises=F Damp=F
 DIIS: error= 6.40D-06 at cycle   8 NSaved=   8.
 NSaved= 8 IEnMin= 8 EnMin= -229.124611505806     IErMin= 8 ErrMin= 6.40D-06
 ErrMax= 6.40D-06  0.00D+00 EMaxC= 1.00D-01 BMatC= 2.47D-08 BMatP= 1.26D-07
 IDIUse=1 WtCom= 1.00D+00 WtEn= 0.00D+00
 Coeff-Com:  0.499D-04-0.163D-03-0.241D-03-0.155D-02-0.427D-04 0.102D-01
 Coeff-Com:  0.374D+00 0.618D+00
 Coeff:      0.499D-04-0.163D-03-0.241D-03-0.155D-02-0.427D-04 0.102D-01
 Coeff:      0.374D+00 0.618D+00
 Gap=     0.274 Goal=   None    Shift=    0.000
 Gap=     0.274 Goal=   None    Shift=    0.000
 RMSDP=7.83D-07 MaxDP=2.57D-05 DE=-2.34D-08 OVMax= 2.25D-05

 Cycle   9  Pass 1  IDiag  1:
 E= -229.124611511474     Delta-E=       -0.000000005668 Rises=F Damp=F
 DIIS: error= 1.12D-06 at cycle   9 NSaved=   9.
 NSaved= 9 IEnMin= 9 EnMin= -229.124611511474     IErMin= 9 ErrMin= 1.12D-06
 ErrMax= 1.12D-06  0.00D+00 EMaxC= 1.00D-01 BMatC= 6.74D-10 BMatP= 2.47D-08
 IDIUse=1 WtCom= 1.00D+00 WtEn= 0.00D+00
 Coeff-Com:  0.120D-04 0.196D-05-0.176D-03-0.814D-03-0.120D-02-0.692D-02
 Coeff-Com:  0.495D-01 0.175D+00 0.784D+00
 Coeff:      0.120D-04 0.196D-05-0.176D-03-0.814D-03-0.120D-02-0.692D-02
 Coeff:      0.495D-01 0.175D+00 0.784D+00
 Gap=     0.274 Goal=   None    Shift=    0.000
 Gap=     0.274 Goal=   None    Shift=    0.000
 RMSDP=1.47D-07 MaxDP=2.97D-06 DE=-5.67D-09 OVMax= 5.77D-06

 Cycle  10  Pass 1  IDiag  1:
 E= -229.124611511649     Delta-E=       -0.000000000176 Rises=F Damp=F
 DIIS: error= 1.68D-07 at cycle  10 NSaved=  10.
 NSaved=10 IEnMin=10 EnMin= -229.124611511649     IErMin=10 ErrMin= 1.68D-07
 ErrMax= 1.68D-07  0.00D+00 EMaxC= 1.00D-01 BMatC= 1.94D-11 BMatP= 6.74D-10
 IDIUse=1 WtCom= 1.00D+00 WtEn= 0.00D+00
 Coeff-Com: -0.731D-06 0.598D-05-0.167D-04-0.784D-04-0.215D-03-0.192D-02
 Coeff-Com: -0.543D-02-0.940D-03 0.136D+00 0.872D+00
 Coeff:     -0.731D-06 0.598D-05-0.167D-04-0.784D-04-0.215D-03-0.192D-02
 Coeff:     -0.543D-02-0.940D-03 0.136D+00 0.872D+00
 Gap=     0.274 Goal=   None    Shift=    0.000
 Gap=     0.274 Goal=   None    Shift=    0.000
 RMSDP=2.95D-08 MaxDP=9.28D-07 DE=-1.76D-10 OVMax= 8.48D-07

 Cycle  11  Pass 1  IDiag  1:
 E= -229.124611511654     Delta-E=       -0.000000000005 Rises=F Damp=F
 DIIS: error= 2.78D-08 at cycle  11 NSaved=  11.
 NSaved=11 IEnMin=11 EnMin= -229.124611511654     IErMin=11 ErrMin= 2.78D-08
 ErrMax= 2.78D-08  0.00D+00 EMaxC= 1.00D-01 BMatC= 7.29D-13 BMatP= 1.94D-11
 IDIUse=1 WtCom= 1.00D+00 WtEn= 0.00D+00
 Coeff-Com: -0.346D-06 0.105D-05 0.246D-05 0.412D-05-0.120D-04-0.231D-03
 Coeff-Com: -0.205D-02-0.503D-02 0.348D-02 0.168D+00 0.836D+00
 Coeff:     -0.346D-06 0.105D-05 0.246D-05 0.412D-05-0.120D-04-0.231D-03
 Coeff:     -0.205D-02-0.503D-02 0.348D-02 0.168D+00 0.836D+00
 Gap=     0.274 Goal=   None    Shift=    0.000
 Gap=     0.274 Goal=   None    Shift=    0.000
 RMSDP=4.13D-09 MaxDP=1.09D-07 DE=-5.23D-12 OVMax= 1.44D-07

 SCF Done:  E(UB3LYP) =  -229.124611512     A.U. after   11 cycles
            NFock= 11  Conv=0.41D-08     -V/T= 2.0063
 <Sx>= 0.0000 <Sy>= 0.0000 <Sz>= 0.0000 <S**2>=-0.0000 S=-0.0000
 <L.S>= 0.000000000000E+00
 KE= 2.276841099063D+02 PE=-7.786146487067D+02 EE= 2.011235899215D+02
 Annihilation of the first spin contaminant:
 S**2 before annihilation    -0.0000,   after     0.0000
 Leave Link  502 at Sat Aug  1 14:55:08 2020, MaxMem=   524288000 cpu:              84.2 elap:              12.7
 (Enter /home/ubuntu/g16/l601.exe)
 Copying SCF densities to generalized density rwf, IOpCl= 1 IROHF=0.

 **********************************************************************

            Population analysis using the SCF density.

 **********************************************************************

 Orbital symmetries:
 Alpha Orbitals:
       Occupied  (A) (A) (A) (A) (A) (A) (A) (A) (A) (A) (A) (A)
                 (A) (A) (A) (A)
       Virtual   (A) (A) (A) (A) (A) (A) (A) (A) (A) (A) (A) (A)
                 (A) (A) (A) (A) (A) (A) (A) (A) (A) (A) (A) (A)
                 (A) (A) (A) (A) (A) (A) (A) (A) (A) (A) (A) (A)
                 (A) (A) (A) (A) (A) (A) (A) (A) (A) (A) (A) (A)
                 (A) (A) (A) (A) (A) (A) (A) (A) (A) (A) (A) (A)
                 (A) (A) (A) (A) (A) (A) (A) (A) (A) (A) (A) (A)
                 (A) (A) (A) (A) (A) (A) (A) (A) (A) (A) (A) (A)
                 (A) (A) (A) (A) (A) (A) (A) (A) (A) (A) (A) (A)
                 (A) (A) (A) (A) (A) (A) (A) (A) (A) (A) (A) (A)
                 (A) (A) (A) (A)
 Beta  Orbitals:
       Occupied  (A) (A) (A) (A) (A) (A) (A) (A) (A) (A) (A) (A)
                 (A) (A) (A) (A)
       Virtual   (A) (A) (A) (A) (A) (A) (A) (A) (A) (A) (A) (A)
                 (A) (A) (A) (A) (A) (A) (A) (A) (A) (A) (A) (A)
                 (A) (A) (A) (A) (A) (A) (A) (A) (A) (A) (A) (A)
                 (A) (A) (A) (A) (A) (A) (A) (A) (A) (A) (A) (A)
                 (A) (A) (A) (A) (A) (A) (A) (A) (A) (A) (A) (A)
                 (A) (A) (A) (A) (A) (A) (A) (A) (A) (A) (A) (A)
                 (A) (A) (A) (A) (A) (A) (A) (A) (A) (A) (A) (A)
                 (A) (A) (A) (A) (A) (A) (A) (A) (A) (A) (A) (A)
                 (A) (A) (A) (A) (A) (A) (A) (A) (A) (A) (A) (A)
                 (A) (A) (A) (A)
 The electronic state is 1-A.
     Natural Orbital Coefficients:
                           1         2         3         4         5
     Eigenvalues --     2.00000   2.00000   2.00000   2.00000   2.00000
   1 1   C  1S          0.01931   0.31434  -0.10123   0.10605   0.49648
   2        2S         -0.00547   0.12785  -0.04017   0.02014   0.14789
   3        3S          0.04811  -0.11843  -0.07246   0.05384   0.00004
   4        4S          0.07024   0.06240   0.13841  -0.02041   0.01146
   5        5PX        -0.04422  -0.05864  -0.00083   0.05281  -0.01546
   6        5PY        -0.07681  -0.06071  -0.32950   0.13042   0.04735
   7        5PZ        -0.10918  -0.10989   0.06954  -0.09022   0.03353
   8        6PX         0.07820  -0.15760  -0.08183   0.07663   0.01281
   9        6PY         0.02141  -0.04026   0.02492  -0.00820  -0.00554
  10        6PZ        -0.01299  -0.00829   0.01882   0.01694   0.00679
  11        7PX         0.03238   0.00763   0.02283   0.00318   0.01034
  12        7PY         0.00591  -0.00215   0.01845  -0.01220   0.00935
  13        7PZ         0.00649   0.00658  -0.00367   0.00594  -0.00148
  14        8D 0        0.00316   0.00490   0.01358  -0.00803  -0.00272
  15        8D+1       -0.00458  -0.00284   0.00794   0.00810   0.00449
  16        8D-1        0.00307   0.00376  -0.00020   0.00675  -0.00007
  17        8D+2       -0.00064  -0.00151  -0.00128   0.00784  -0.00055
  18        8D-2       -0.00514  -0.00059   0.00769  -0.00559   0.00120
  19        9D 0       -0.02317   0.00494  -0.05361   0.02103   0.00140
  20        9D+1       -0.00664  -0.00388   0.01091   0.01188   0.00536
  21        9D-1       -0.01477  -0.01475   0.00762  -0.01352   0.00240
  22        9D+2        0.01051  -0.02508  -0.04938   0.02190   0.01287
  23        9D-2        0.02492  -0.01528   0.00660   0.01656  -0.01156
  24 2   H  1S         -0.03045   0.03285  -0.27325   0.09298   0.10620
  25        2S          0.04031  -0.04591  -0.28274   0.16816   0.04270
  26        3S          0.01912   0.00313  -0.00903   0.01778  -0.00263
  27        4PX        -0.00261   0.00035  -0.01089   0.00585   0.00417
  28        4PY         0.00061  -0.00729   0.00543  -0.00015  -0.00760
  29        4PZ        -0.00348  -0.00340   0.00240  -0.00234   0.00114
  30        5PX         0.00551  -0.00060  -0.02768   0.02000   0.00473
  31        5PY        -0.01596   0.00568   0.03376  -0.02881  -0.00643
  32        5PZ         0.00246   0.00275  -0.00046   0.00422   0.00012
  33 3   H  1S         -0.03071   0.01848   0.17345  -0.14945   0.05918
  34        2S         -0.01610  -0.06850   0.13812  -0.17096   0.02924
  35        3S         -0.00094  -0.01180   0.01107  -0.01507   0.00647
  36        4PX        -0.00267  -0.00100   0.00391  -0.00384   0.00156
  37        4PY        -0.00351   0.00044  -0.00305  -0.00095   0.00526
  38        4PZ        -0.00126  -0.00618  -0.00749   0.00364  -0.00512
  39        5PX         0.00245  -0.00289   0.00885  -0.01803  -0.00132
  40        5PY         0.00180  -0.00283   0.02547  -0.02054   0.00443
  41        5PZ         0.00702   0.01143  -0.00709   0.02101  -0.01154
  42 4   H  1S          0.10986   0.16745   0.10438   0.01311   0.02568
  43        2S          0.10243   0.06623   0.10269   0.02209   0.01073
  44        3S          0.01274   0.00324   0.00652   0.00483   0.00542
  45        4PX         0.00049   0.00282   0.00296   0.00186   0.00059
  46        4PY         0.00265   0.00664  -0.00693   0.00379   0.00334
  47        4PZ         0.00366   0.00847   0.00557  -0.00264   0.00396
  48        5PX         0.00472   0.00268   0.01455   0.00265   0.00016
  49        5PY         0.01185   0.00832   0.02144  -0.00671   0.00135
  50        5PZ         0.01083   0.00843  -0.00030   0.00414   0.00691
  51 5   C  1S          0.07244   0.07038   0.05379  -0.11038   0.04654
  52        2S         -0.17287   0.17397  -0.02832   0.06524   0.00814
  53        3S         -0.29617   0.30693   0.02431  -0.03179  -0.05053
  54        4S         -0.14975  -0.01414  -0.11389   0.00792  -0.07606
  55        5PX        -0.01721   0.19989   0.09796  -0.07179  -0.08228
  56        5PY        -0.25946  -0.01915  -0.00458  -0.20214   0.07312
  57        5PZ        -0.14703  -0.10366   0.21804   0.17443   0.12123
  58        6PX         0.06416  -0.09675  -0.05445   0.02661  -0.03704
  59        6PY        -0.05878  -0.04201  -0.08414   0.01341   0.00124
  60        6PZ        -0.05323  -0.03682   0.07930   0.06523   0.04262
  61        7PX         0.04154   0.01357   0.06904  -0.00035  -0.00764
  62        7PY        -0.02725  -0.00265  -0.01304  -0.01084   0.00157
  63        7PZ        -0.00261  -0.00105   0.00413   0.00555   0.00085
  64        8D 0        0.00379  -0.01375  -0.00052  -0.00124  -0.00451
  65        8D+1       -0.00203  -0.00001   0.00788   0.01311   0.00542
  66        8D-1       -0.00361   0.00403   0.01511   0.03595   0.00150
  67        8D+2       -0.00038   0.01747  -0.00145  -0.00168  -0.00915
  68        8D-2       -0.02534   0.00857   0.02329  -0.04335   0.01626
  69        9D 0        0.01626  -0.01139   0.01926   0.00081  -0.00527
  70        9D+1        0.00340   0.00496   0.00086   0.01156  -0.00034
  71        9D-1        0.00692   0.00876  -0.00078   0.01553  -0.00131
  72        9D+2       -0.03932   0.06585  -0.00016  -0.02197   0.01998
  73        9D-2        0.04443   0.01066   0.06855   0.01584  -0.03440
  74 6   O  1S         -0.21979   0.04998  -0.21586  -0.04345   0.09713
  75        2S          0.15879   0.00028   0.09016  -0.13651   0.26534
  76        3S          0.29717  -0.05255   0.12168  -0.12389   0.30899
  77        4S          0.16129  -0.02073   0.05286  -0.00700   0.08475
  78        5PX         0.13953   0.11320   0.05939  -0.06214   0.00399
  79        5PY         0.40241  -0.24396  -0.01933   0.15606   0.08188
  80        5PZ        -0.13629  -0.05287   0.27084   0.37708   0.10886
  81        6PX         0.03423   0.08260   0.02277  -0.06068   0.01354
  82        6PY         0.16657  -0.09993  -0.00591   0.05615   0.05299
  83        6PZ        -0.08569  -0.03358   0.16800   0.23300   0.06610
  84        7PX        -0.02221   0.00809  -0.02506  -0.01380   0.00690
  85        7PY         0.01513  -0.01327  -0.00573   0.02057  -0.00441
  86        7PZ        -0.01321  -0.00331   0.02805   0.04417   0.00882
  87        8D 0        0.01017  -0.00526   0.00015   0.00341   0.00004
  88        8D+1        0.00324   0.00180  -0.00549  -0.00612  -0.00250
  89        8D-1        0.00642   0.00355  -0.01115  -0.01264  -0.00527
  90        8D+2        0.00914  -0.01193  -0.00298   0.00583   0.00161
  91        8D-2       -0.01286   0.00114  -0.00093  -0.00363   0.00269
  92        9D 0       -0.00855   0.00651   0.00149  -0.00924   0.00529
  93        9D+1        0.00218   0.00120  -0.00379  -0.00432  -0.00182
  94        9D-1        0.00665   0.00445  -0.00986  -0.00856  -0.00493
  95        9D+2       -0.00493  -0.00070   0.00233  -0.00688   0.00339
  96        9D-2        0.00647  -0.00971  -0.00618   0.01136  -0.00267
  97 7   O  1S          0.19030  -0.10423   0.00527  -0.01410   0.01583
  98        2S          0.01056  -0.10269  -0.08999   0.10020   0.03878
  99        3S         -0.00651  -0.16299  -0.10212   0.08328   0.07841
 100        4S         -0.06956  -0.03984  -0.10755  -0.00916   0.07127
 101        5PX        -0.00940   0.02307   0.03095  -0.04978  -0.05309
 102        5PY         0.16417   0.27524   0.05472   0.20710  -0.16589
 103        5PZ        -0.07824  -0.11754   0.04410  -0.17918   0.10936
 104        6PX         0.00027   0.02561   0.03272  -0.02897  -0.03085
 105        6PY         0.10325   0.13903   0.04321   0.11570  -0.09130
 106        6PZ        -0.04486  -0.07290   0.02033  -0.12490   0.06864
 107        7PX         0.00563   0.00681   0.00343   0.00347  -0.01103
 108        7PY         0.01111   0.01620  -0.01956   0.02615  -0.00322
 109        7PZ        -0.00008  -0.00833  -0.00786  -0.03387   0.00804
 110        8D 0       -0.00253  -0.00553  -0.00082  -0.00471   0.00304
 111        8D+1        0.00090   0.00030  -0.00163  -0.00240  -0.00036
 112        8D-1       -0.00400  -0.00406   0.00454  -0.00059   0.00426
 113        8D+2       -0.00096  -0.01040  -0.00169  -0.00300   0.00339
 114        8D-2        0.00027  -0.00009   0.00142  -0.00325  -0.00205
 115        9D 0        0.00337   0.00064  -0.00219   0.00437  -0.00275
 116        9D+1        0.00151   0.00061  -0.00281  -0.00383  -0.00097
 117        9D-1       -0.00520  -0.00531   0.00611  -0.00058   0.00587
 118        9D+2       -0.00254  -0.00506  -0.00652  -0.00405   0.00679
 119        9D-2        0.00663   0.00790   0.00749  -0.00040  -0.00387
 120 8   H  1S          0.02796   0.03012   0.00508   0.03304  -0.05353
 121        2S          0.05940   0.00229   0.10296  -0.00216  -0.04376
 122        3S         -0.01008  -0.00302  -0.01752  -0.00171   0.00565
 123        4PX        -0.00430  -0.00423   0.00229  -0.00881   0.00667
 124        4PY         0.00514   0.01169   0.00238   0.00420  -0.00427
 125        4PZ        -0.00325  -0.00467   0.00213  -0.00642   0.00446
 126        5PX        -0.01739   0.00505  -0.03175   0.00099   0.00987
 127        5PY         0.00764   0.00143   0.01104  -0.00098  -0.00654
 128        5PZ        -0.00257  -0.00387   0.00100  -0.00656   0.00290
                           6         7         8         9        10
     Eigenvalues --     2.00000   2.00000   2.00000   2.00000   2.00000
   1 1   C  1S         -0.32950   0.18804  -0.04830   0.05863  -0.03113
   2        2S         -0.03271   0.00073   0.11989  -0.01047  -0.00887
   3        3S         -0.06906   0.03798   0.22245  -0.08882  -0.00764
   4        4S         -0.08071   0.00102  -0.07538   0.05662   0.01729
   5        5PX        -0.21293   0.05358   0.15513  -0.07471  -0.09239
   6        5PY         0.21747   0.03285   0.07743  -0.02909  -0.07115
   7        5PZ         0.03438   0.23245  -0.05569   0.02470  -0.06038
   8        6PX        -0.13234   0.05777   0.19151  -0.05916  -0.00043
   9        6PY        -0.06285   0.00686   0.07166  -0.04125   0.00127
  10        6PZ         0.00632   0.00275  -0.00074  -0.00151  -0.00050
  11        7PX        -0.02247   0.00773   0.00001   0.00720   0.00917
  12        7PY        -0.00872  -0.00812  -0.00372   0.00906   0.00969
  13        7PZ        -0.00191  -0.01431   0.00357  -0.00193   0.00376
  14        8D 0       -0.00325  -0.00290  -0.00416   0.00062   0.00469
  15        8D+1        0.00296  -0.00058   0.00101  -0.00216   0.00051
  16        8D-1       -0.00052  -0.01025   0.00266  -0.00167   0.00277
  17        8D+2       -0.01237   0.00590   0.00270  -0.00055  -0.00661
  18        8D-2       -0.01185  -0.00523   0.00009   0.00214  -0.00594
  19        9D 0        0.04917   0.00624   0.00234  -0.00873  -0.01487
  20        9D+1        0.00405  -0.00117   0.00107  -0.00228   0.00062
  21        9D-1        0.00415   0.03227  -0.00846   0.00489  -0.00879
  22        9D+2        0.01845   0.00745   0.02848  -0.00284   0.00900
  23        9D-2       -0.02450   0.02128   0.01827  -0.01886  -0.00875
  24 2   H  1S          0.25897   0.00733   0.04794   0.00392  -0.00992
  25        2S          0.19393   0.08411   0.02116   0.00024  -0.02042
  26        3S          0.00076   0.01589   0.00192  -0.00620  -0.00863
  27        4PX         0.00278   0.00164   0.00526  -0.00088  -0.00437
  28        4PY        -0.00847   0.00229  -0.00299  -0.00134  -0.00115
  29        4PZ         0.00116   0.00693  -0.00165   0.00070  -0.00179
  30        5PX         0.01524   0.00941  -0.01051   0.01052   0.00011
  31        5PY        -0.01664  -0.01803  -0.00143  -0.00106   0.00625
  32        5PZ        -0.00040  -0.00701   0.00193  -0.00130   0.00195
  33 3   H  1S         -0.05058   0.13601  -0.05635   0.04833   0.00209
  34        2S         -0.08836   0.13115  -0.02893   0.03911   0.01354
  35        3S         -0.00447   0.01462  -0.00952   0.01149   0.00375
  36        4PX        -0.00594   0.00494   0.00377  -0.00156  -0.00212
  37        4PY         0.00580   0.00597   0.00169   0.00053  -0.00167
  38        4PZ         0.00265  -0.00024  -0.00130  -0.00121  -0.00263
  39        5PX        -0.00937   0.00889   0.00348  -0.00206   0.00413
  40        5PY        -0.01787   0.00704  -0.00080   0.00267   0.00504
  41        5PZ         0.00592  -0.01713  -0.00644  -0.00213  -0.00316
  42 4   H  1S         -0.09011  -0.20435   0.02699   0.00596   0.09182
  43        2S         -0.11620  -0.20571   0.05506  -0.00848   0.10317
  44        3S         -0.00753  -0.02203   0.00014   0.00540   0.01361
  45        4PX        -0.00678  -0.00466   0.00593  -0.00251   0.00036
  46        4PY         0.00378  -0.00688   0.00473  -0.00077   0.00169
  47        4PZ        -0.00360  -0.00404   0.00214   0.00104   0.00370
  48        5PX        -0.00852  -0.01286   0.00887  -0.00566   0.00995
  49        5PY        -0.02099  -0.01959   0.00527  -0.00006   0.01199
  50        5PZ        -0.01076  -0.03036   0.01765  -0.00346   0.01555
  51 5   C  1S          0.12511   0.06963   0.35343   0.40977   0.18935
  52        2S         -0.03925   0.03089  -0.07461   0.07692  -0.14122
  53        3S          0.10170  -0.03422  -0.16619  -0.00111  -0.15847
  54        4S          0.05187  -0.00666   0.07403  -0.09141  -0.06935
  55        5PX         0.23353  -0.02447  -0.26386   0.07660   0.07678
  56        5PY        -0.02112  -0.24064   0.00126   0.06172  -0.11696
  57        5PZ         0.08434   0.05580   0.00791  -0.04571  -0.00556
  58        6PX         0.02400   0.02838   0.07548  -0.04406   0.04656
  59        6PY        -0.01593  -0.02042   0.01095   0.02300   0.03516
  60        6PZ         0.03019   0.01796   0.00282  -0.01590  -0.00164
  61        7PX        -0.05403   0.00967  -0.05112   0.03116  -0.00095
  62        7PY         0.01591  -0.01411   0.00466   0.00418   0.01345
  63        7PZ         0.00125  -0.00158   0.00014  -0.00011   0.00034
  64        8D 0       -0.00881   0.00060   0.01572  -0.00970   0.00274
  65        8D+1        0.00286  -0.00832   0.00346  -0.00418   0.00276
  66        8D-1        0.00323  -0.02822   0.00564  -0.00291   0.00705
  67        8D+2       -0.00462   0.00763   0.04470  -0.03253   0.00315
  68        8D-2       -0.00285  -0.03295   0.02502  -0.00770  -0.00005
  69        9D 0       -0.02899   0.00581  -0.00050   0.00914   0.00553
  70        9D+1       -0.00037  -0.01514   0.00367  -0.00204   0.00397
  71        9D-1       -0.00149  -0.02357   0.00563  -0.00296   0.00623
  72        9D+2        0.04765  -0.02639  -0.03917   0.02980   0.00165
  73        9D-2       -0.09093   0.03966  -0.00297  -0.01834   0.01209
  74 6   O  1S         -0.16379   0.03702  -0.30033  -0.66041   0.40600
  75        2S          0.12628  -0.11039  -0.07935   0.03538  -0.07550
  76        3S          0.14674  -0.08846  -0.04405   0.06056  -0.06227
  77        4S          0.03820   0.01694   0.00897  -0.00050   0.01420
  78        5PX         0.17925   0.06257   0.22425  -0.18967   0.21082
  79        5PY        -0.07324   0.14776   0.04638  -0.03402   0.00220
  80        5PZ         0.08817  -0.14749   0.04670  -0.05907   0.04433
  81        6PX         0.13117   0.00995   0.13128  -0.10775   0.11931
  82        6PY        -0.02252   0.04580  -0.01679   0.00295  -0.02804
  83        6PZ         0.05454  -0.08951   0.02777  -0.03517   0.02669
  84        7PX         0.03537  -0.00695   0.05252  -0.02984   0.02404
  85        7PY        -0.02069   0.01272  -0.01820   0.00797  -0.01519
  86        7PZ         0.00842  -0.02168   0.00536  -0.00522   0.00589
  87        8D 0       -0.00102   0.00476   0.00442  -0.00326   0.00388
  88        8D+1       -0.00193   0.00089  -0.00054   0.00109  -0.00039
  89        8D-1       -0.00393   0.00217  -0.00128   0.00243  -0.00091
  90        8D+2       -0.00847   0.00380   0.00525  -0.00134  -0.00173
  91        8D-2       -0.00484  -0.00759  -0.00639   0.00669  -0.00950
  92        9D 0        0.01068  -0.00973  -0.00782   0.00551  -0.00287
  93        9D+1       -0.00136   0.00077  -0.00045   0.00085  -0.00032
  94        9D-1       -0.00369  -0.00178  -0.00029   0.00174   0.00015
  95        9D+2       -0.00192  -0.00754  -0.00095   0.00222  -0.00701
  96        9D-2       -0.01165   0.00840   0.00891  -0.00468  -0.00283
  97 7   O  1S          0.01624  -0.29104  -0.22922  -0.19859  -0.55282
  98        2S         -0.08702   0.00212  -0.21689   0.22563   0.22308
  99        3S         -0.08486  -0.01748  -0.22321   0.28043   0.29808
 100        4S          0.09331  -0.05719  -0.04174   0.08599   0.09831
 101        5PX        -0.20439  -0.03987   0.13730  -0.09091  -0.10578
 102        5PY         0.05369   0.24427  -0.17618  -0.05593  -0.17256
 103        5PZ         0.04448   0.28948  -0.03050  -0.03143  -0.06143
 104        6PX        -0.06195  -0.00979   0.06837  -0.06490  -0.07548
 105        6PY        -0.00448   0.13814  -0.08914  -0.03518  -0.11364
 106        6PZ         0.02610   0.18770  -0.01952  -0.02018  -0.03977
 107        7PX        -0.01763   0.00806   0.01644  -0.01550  -0.00538
 108        7PY         0.01031   0.01730  -0.02007   0.00390  -0.01669
 109        7PZ         0.00066   0.03306  -0.00351  -0.00257  -0.00710
 110        8D 0        0.00289  -0.00465   0.00394  -0.00043   0.00089
 111        8D+1       -0.00045   0.00097  -0.00016   0.00013  -0.00023
 112        8D-1        0.00231   0.00660  -0.00042  -0.00144  -0.00128
 113        8D+2       -0.01102  -0.00469   0.00882  -0.00054   0.00222
 114        8D-2       -0.00547  -0.00254   0.00467  -0.00353  -0.00431
 115        9D 0       -0.00348   0.00238  -0.00561   0.00350   0.00413
 116        9D+1       -0.00092   0.00137  -0.00036   0.00046  -0.00039
 117        9D-1        0.00311   0.00852  -0.00042  -0.00211  -0.00159
 118        9D+2        0.02076  -0.00240   0.00915  -0.00314   0.01044
 119        9D-2        0.01413   0.00419  -0.00837  -0.00220  -0.00586
 120 8   H  1S         -0.20095   0.01826   0.02724  -0.01155  -0.02588
 121        2S         -0.15978   0.03398   0.05436  -0.05471  -0.04489
 122        3S          0.01784  -0.00433   0.01309  -0.00668   0.00104
 123        4PX         0.01985  -0.00469   0.00891  -0.00765  -0.00484
 124        4PY         0.01322   0.00819  -0.00266  -0.00543  -0.00343
 125        4PZ         0.00185   0.01109  -0.00111  -0.00134  -0.00233
 126        5PX         0.04615  -0.00769  -0.00407   0.00559   0.00081
 127        5PY        -0.00682   0.00662   0.00874  -0.00940   0.00163
 128        5PZ         0.00119   0.01001  -0.00138  -0.00050  -0.00225
                          11        12        13        14        15
     Eigenvalues --     2.00000   2.00000   2.00000   2.00000   2.00000
   1 1   C  1S         -0.24655  -0.24058  -0.39694  -0.23355   0.12891
   2        2S         -0.03225  -0.00197   0.21474  -0.01320   0.01764
   3        3S          0.04185  -0.01090   0.08446   0.09757   0.00608
   4        4S          0.01384   0.04917   0.07388   0.00629   0.00674
   5        5PX         0.04911   0.02300  -0.06632   0.29855   0.03107
   6        5PY         0.00010  -0.03196  -0.03255   0.02893  -0.09781
   7        5PZ         0.09848  -0.25425  -0.05852  -0.01879  -0.00693
   8        6PX         0.05021  -0.02316   0.02476   0.07566  -0.05815
   9        6PY         0.00637  -0.00736  -0.00131   0.03210   0.02898
  10        6PZ         0.00910  -0.01778  -0.00596  -0.00294  -0.00180
  11        7PX         0.00255   0.00349   0.02503   0.00224  -0.01433
  12        7PY        -0.00161   0.00352   0.00074   0.00936   0.00661
  13        7PZ        -0.00752   0.01833   0.00498   0.00132   0.00016
  14        8D 0       -0.00178  -0.00181   0.00216  -0.00752   0.00050
  15        8D+1       -0.00231   0.00397   0.00321  -0.00042  -0.00157
  16        8D-1       -0.00438   0.01115   0.00303   0.00055  -0.00015
  17        8D+2        0.00475   0.00537  -0.00133   0.01535   0.00237
  18        8D-2        0.00333   0.00460  -0.00168   0.00269   0.00137
  19        9D 0       -0.00498  -0.00487  -0.00956   0.00593  -0.00145
  20        9D+1        0.00023  -0.00053   0.00129  -0.00112  -0.00181
  21        9D-1        0.01919  -0.04509  -0.01359  -0.00310  -0.00002
  22        9D+2        0.00169  -0.01237   0.01751  -0.01205  -0.02710
  23        9D-2        0.01297   0.00834   0.00264  -0.00726   0.02257
  24 2   H  1S         -0.03457  -0.03210   0.11257  -0.10175  -0.07645
  25        2S          0.01472  -0.01641   0.03701  -0.10842  -0.08921
  26        3S          0.00670  -0.00002   0.00717  -0.01186  -0.01611
  27        4PX         0.00120   0.00088   0.00476   0.00278  -0.00346
  28        4PY         0.00249   0.00031  -0.01392   0.00699   0.00209
  29        4PZ         0.00308  -0.00786  -0.00181  -0.00063  -0.00025
  30        5PX         0.00410   0.00052   0.00741  -0.01836  -0.02133
  31        5PY        -0.00699  -0.00334  -0.01043   0.02390   0.00920
  32        5PZ        -0.00410   0.00962   0.00315   0.00047  -0.00019
  33 3   H  1S          0.05321  -0.17059   0.09344  -0.10114   0.03823
  34        2S          0.05877  -0.19337   0.00369  -0.07014   0.00756
  35        3S          0.00915  -0.02237  -0.00600  -0.00317   0.00275
  36        4PX         0.00108  -0.00268   0.00086   0.00785   0.00374
  37        4PY         0.00154  -0.00743   0.00623  -0.00321  -0.00218
  38        4PZ         0.00090   0.00078  -0.01357   0.00551  -0.00239
  39        5PX        -0.00105  -0.01200   0.00057  -0.00060   0.00408
  40        5PY         0.00139  -0.01377   0.00521  -0.00674  -0.00011
  41        5PZ        -0.00366   0.03041  -0.00747   0.01026   0.00441
  42 4   H  1S         -0.09141   0.20112   0.18422  -0.07711   0.04358
  43        2S         -0.08027   0.16597   0.09362  -0.04958   0.00826
  44        3S         -0.01096   0.02579   0.00837  -0.00019   0.00226
  45        4PX        -0.00099   0.00414   0.00170   0.00814   0.00400
  46        4PY        -0.00391   0.00663   0.00952  -0.00221  -0.00174
  47        4PZ        -0.00211   0.00288   0.01396  -0.00519   0.00272
  48        5PX        -0.00506   0.00194   0.00291  -0.00077   0.00347
  49        5PY        -0.00639   0.00895   0.00903  -0.00537   0.00068
  50        5PZ        -0.01296   0.01506   0.01690  -0.00747  -0.00351
  51 5   C  1S          0.57468  -0.13265   0.27283  -0.09352   0.09754
  52        2S          0.07712   0.09075  -0.00403   0.24033   0.03990
  53        3S         -0.02731   0.06191  -0.04914   0.13960   0.16637
  54        4S         -0.00071  -0.03777  -0.07005  -0.00610   0.03982
  55        5PX        -0.05887  -0.03536  -0.03477  -0.12385  -0.04695
  56        5PY         0.01824   0.02346  -0.04864  -0.11285  -0.10554
  57        5PZ        -0.02613   0.01905   0.06066  -0.01647  -0.04103
  58        6PX         0.01721  -0.04520   0.01913  -0.08543  -0.00960
  59        6PY        -0.00407  -0.02770   0.02113  -0.02483  -0.09770
  60        6PZ        -0.00529   0.00014   0.01788  -0.00657  -0.01413
  61        7PX         0.02083   0.03286   0.01596  -0.01984   0.01343
  62        7PY        -0.01507  -0.01065  -0.00255   0.00430   0.00823
  63        7PZ         0.00401  -0.00688  -0.00326  -0.00099  -0.00008
  64        8D 0       -0.00252  -0.00477  -0.00201  -0.00517   0.00064
  65        8D+1       -0.00905   0.01853   0.00870   0.00047  -0.00219
  66        8D-1        0.01094  -0.01129  -0.01094  -0.00309   0.00011
  67        8D+2       -0.01316  -0.02501   0.01785   0.01957  -0.02522
  68        8D-2       -0.01170  -0.00909  -0.00521   0.02310   0.00230
  69        9D 0        0.00931   0.00467  -0.00309   0.00593  -0.00739
  70        9D+1       -0.00315   0.01043   0.00152   0.00025  -0.00000
  71        9D-1       -0.00632   0.01890   0.00346   0.00076   0.00021
  72        9D+2       -0.02520  -0.00638   0.01138   0.01515  -0.04643
  73        9D-2        0.01179   0.01365   0.01436   0.01861   0.01895
  74 6   O  1S          0.41137   0.01840   0.15773  -0.05379   0.09400
  75        2S          0.09108   0.07808  -0.12215   0.12183  -0.12848
  76        3S          0.06978   0.07635  -0.13846   0.14210  -0.14704
  77        4S          0.00257   0.00990  -0.01815   0.05101  -0.02128
  78        5PX        -0.17822  -0.22663   0.02098   0.28069  -0.05479
  79        5PY         0.11436   0.07590  -0.00220  -0.10327   0.01177
  80        5PZ         0.03533  -0.02872  -0.00987  -0.03094  -0.03344
  81        6PX        -0.11216  -0.14062   0.00161   0.18356  -0.03089
  82        6PY         0.07854   0.05960  -0.00786  -0.07929  -0.00103
  83        6PZ         0.02815  -0.02962  -0.01176  -0.02003  -0.02000
  84        7PX        -0.03031  -0.04072  -0.00109   0.05334  -0.01137
  85        7PY         0.02441   0.01973   0.00194  -0.02717  -0.00810
  86        7PZ         0.01023  -0.01271  -0.00783  -0.00411  -0.00234
  87        8D 0        0.00006  -0.00151   0.00090  -0.00030   0.00149
  88        8D+1       -0.00045   0.00078  -0.00026   0.00058   0.00079
  89        8D-1       -0.00008  -0.00003  -0.00127   0.00107   0.00171
  90        8D+2        0.00465   0.00323   0.00169  -0.00582   0.00200
  91        8D-2        0.00459   0.00677  -0.00204  -0.00239  -0.00135
  92        9D 0       -0.00015   0.00167  -0.00154  -0.00544   0.00010
  93        9D+1        0.00007  -0.00020  -0.00051   0.00035   0.00060
  94        9D-1       -0.00061   0.00211  -0.00100   0.00100   0.00159
  95        9D+2        0.00514   0.00370  -0.00089  -0.00765  -0.00311
  96        9D-2        0.00215   0.00201   0.00290   0.00204   0.00204
  97 7   O  1S         -0.05268  -0.42737   0.42489   0.09663   0.26515
  98        2S         -0.05810  -0.04909   0.07711   0.09897  -0.13514
  99        3S         -0.07429  -0.01571   0.04402   0.09157  -0.09936
 100        4S         -0.06279  -0.02803   0.00871   0.00822  -0.04425
 101        5PX         0.04541  -0.07739   0.07511  -0.09782  -0.40753
 102        5PY         0.11422   0.07851   0.02671  -0.04485  -0.08914
 103        5PZ        -0.20879   0.27955   0.23017   0.02640  -0.04656
 104        6PX         0.03032  -0.01543   0.01620  -0.05626  -0.10217
 105        6PY         0.07850   0.06148   0.00837  -0.03819  -0.06067
 106        6PZ        -0.14236   0.19416   0.15466   0.01883  -0.02990
 107        7PX         0.00371  -0.01018   0.00870  -0.00055  -0.02577
 108        7PY         0.01157   0.00944   0.01053  -0.02425  -0.03419
 109        7PZ        -0.03135   0.04604   0.03148   0.00526  -0.00423
 110        8D 0       -0.00099   0.00024  -0.00242  -0.00329   0.00764
 111        8D+1       -0.00128   0.00206   0.00106   0.00034   0.00008
 112        8D-1       -0.00478   0.00625   0.00576   0.00027  -0.00163
 113        8D+2       -0.00020  -0.00276   0.00212   0.00022  -0.00702
 114        8D-2        0.00222  -0.00265   0.00208  -0.00857  -0.01442
 115        9D 0        0.00039  -0.00317   0.00567  -0.00389  -0.01434
 116        9D+1       -0.00104   0.00155   0.00073   0.00042   0.00019
 117        9D-1       -0.00713   0.00976   0.00838   0.00045  -0.00230
 118        9D+2       -0.00808  -0.00349  -0.00315   0.00534   0.02918
 119        9D-2        0.00393   0.00601  -0.00426  -0.01173   0.01972
 120 8   H  1S          0.03184  -0.06991   0.09147  -0.01783  -0.40054
 121        2S          0.04034   0.00872   0.00900   0.02978  -0.03021
 122        3S         -0.00742  -0.00802  -0.00486   0.00808  -0.00316
 123        4PX        -0.00214   0.00787  -0.01185   0.00184   0.04758
 124        4PY         0.00026   0.00152  -0.00198   0.00238   0.01099
 125        4PZ        -0.00821   0.01108   0.00910   0.00100  -0.00196
 126        5PX        -0.00738  -0.00432  -0.00293  -0.00685  -0.00477
 127        5PY         0.00071  -0.00199  -0.00325   0.00721   0.00784
 128        5PZ        -0.00495   0.00563   0.00578   0.00066  -0.00122
                          16        17        18        19        20
     Eigenvalues --     2.00000   0.00000   0.00000   0.00000   0.00000
   1 1   C  1S          0.40613  -0.03779   0.03505  -0.00346   0.02576
   2        2S         -0.22102  -0.38414   0.44934  -0.10367   0.02779
   3        3S         -0.05448   0.14916   1.36285  -1.17817  -0.70559
   4        4S         -0.10541   2.83053  -1.01501   0.96810  -9.52886
   5        5PX         0.01995   0.09201   0.17761  -0.01625  -0.02691
   6        5PY         0.04082  -0.06210   0.12700   0.05182  -0.08945
   7        5PZ        -0.16098   0.00460   0.01262  -0.06591   0.10596
   8        6PX         0.01563   0.83592  -0.23223  -2.53786   0.04371
   9        6PY         0.00472   4.60790   0.54517  -1.99458   6.01047
  10        6PZ        -0.00867   0.36847  -1.26485   0.17933  -1.91255
  11        7PX        -0.02632  -1.72162  -1.18362   0.51289  -3.59374
  12        7PY        -0.00805   2.03764  -0.51407  -0.26621  -0.66036
  13        7PZ         0.01196   0.00894  -1.23271  -0.28568  -1.01008
  14        8D 0        0.00043  -0.24463  -0.27000   0.19526   0.12756
  15        8D+1        0.00428   0.00755   0.03714  -0.05374   0.07810
  16        8D-1        0.00758  -0.00248  -0.01618  -0.07163   0.03038
  17        8D+2       -0.00335  -0.14159  -0.04692  -0.21791   0.05426
  18        8D-2       -0.00191  -0.05152  -0.18654   0.03706  -0.03576
  19        9D 0        0.00935  -0.58748   2.63771   1.50742  -1.83620
  20        9D+1        0.00163  -0.19087   0.30693  -0.33814  -0.86954
  21        9D-1       -0.02944  -0.04613   0.42337  -0.51309   0.18228
  22        9D+2       -0.00090   0.52270   0.58326   1.54751  -1.49494
  23        9D-2       -0.00250   0.83597  -0.05336   0.61166   1.83118
  24 2   H  1S         -0.09058  -0.50286   0.01337   0.73982  -0.22688
  25        2S         -0.00001  -1.90802   1.43654   0.86153  -5.32243
  26        3S         -0.00139  -2.41209  -1.07654  -0.10412  -2.07914
  27        4PX        -0.00546  -0.25653   0.04284   0.03349  -0.17068
  28        4PY         0.01336   0.12955   0.29187  -0.02453  -0.04823
  29        4PZ        -0.00495  -0.05389  -0.01510   0.00322   0.01129
  30        5PX        -0.00113   0.26313  -0.41974   0.18546  -1.56096
  31        5PY         0.00673   0.42830  -0.57774   1.02166   1.31716
  32        5PZ         0.00642   0.13248   0.11820   0.04213  -0.05768
  33 3   H  1S         -0.25632   0.34705   0.20176  -0.59785   0.46239
  34        2S         -0.14542  -0.27014   1.11784  -1.97626   5.02295
  35        3S         -0.01972   0.25269   2.09396   0.61412   0.30858
  36        4PX        -0.00535  -0.00956   0.17380  -0.06463   0.01057
  37        4PY        -0.01183  -0.08549   0.06105  -0.10747   0.05350
  38        4PZ         0.01456   0.00704  -0.33048   0.11767   0.02350
  39        5PX        -0.00291   0.14031   0.05010   0.67824   1.18310
  40        5PY        -0.01183  -0.63804  -1.22828  -0.43520   1.62350
  41        5PZ         0.01993   0.06202  -0.85296  -0.07931  -0.73200
  42 4   H  1S         -0.01542   0.18702  -0.13331  -0.22766   0.29304
  43        2S          0.09366   2.87138  -3.21433  -1.24934   2.00946
  44        3S          0.01249   0.43121  -1.20427   0.34776  -1.76070
  45        4PX        -0.00099  -0.10541   0.13348  -0.05360  -0.09100
  46        4PY        -0.00306  -0.06464   0.10114  -0.08094  -0.04568
  47        4PZ        -0.01240  -0.06879   0.25819  -0.03321  -0.21032
  48        5PX         0.00745   0.60086  -0.26549   0.30922   0.03392
  49        5PY         0.00287  -0.03146  -1.89054  -0.47118   1.16878
  50        5PZ         0.00976   1.11411  -0.05918   0.18031   0.05837
  51 5   C  1S          0.46289   0.00723  -0.06158  -0.14586   0.00408
  52        2S         -0.04566  -0.15680  -0.69325  -1.28675  -0.05390
  53        3S         -0.02630  -6.26712  -0.92277   1.91217  -0.58931
  54        4S          0.11772   4.94483  -1.57863   0.08185  13.33256
  55        5PX         0.07745  -0.10273  -0.25719  -0.22599   0.02135
  56        5PY         0.02578  -0.23969  -0.00948   0.10992   0.00401
  57        5PZ         0.05583  -0.00868   0.04560  -0.01124  -0.03813
  58        6PX         0.06202   0.75550   0.58699  -2.49463   1.07019
  59        6PY         0.02101  -0.89846   0.83053   1.95313   0.33714
  60        6PZ         0.01542   0.23620   0.24663  -0.02187   0.97505
  61        7PX        -0.02794   3.34370   0.66555   1.25544  -4.68924
  62        7PY         0.00564  -1.40955   2.96165   0.29815   1.82389
  63        7PZ        -0.00414  -0.02588  -0.15264   0.67805   0.26355
  64        8D 0        0.00471   0.39677   0.04556  -0.00406  -0.00657
  65        8D+1        0.01437   0.01882   0.05480  -0.00350  -0.01439
  66        8D-1       -0.00564  -0.06722  -0.02264   0.03414   0.03911
  67        8D+2       -0.00102   0.39539   0.17903  -0.12219  -0.00318
  68        8D-2       -0.00263   0.05373   0.03982   0.18770   0.23724
  69        9D 0        0.00408   0.24398  -0.69798  -2.09100  -0.18906
  70        9D+1        0.00725  -0.43924   0.49308  -0.36152  -0.61405
  71        9D-1        0.01259  -0.42833  -0.14942   0.48897   0.09836
  72        9D+2       -0.02276   1.11945  -1.53560  -0.37215  -1.02180
  73        9D-2       -0.01577   3.17688  -0.73027   0.44097   3.74162
  74 6   O  1S          0.10262  -0.04724  -0.00545   0.02261   0.04324
  75        2S         -0.04036  -0.77179   0.13458   0.19114   0.19944
  76        3S         -0.06648   2.37180  -0.83184  -1.99804  -2.40782
  77        4S         -0.04066  -2.60144   1.00377  -1.02946  -3.87124
  78        5PX         0.04365   0.13930  -0.01914   0.05107   0.14915
  79        5PY        -0.04709   0.06566   0.06306   0.08847  -0.14581
  80        5PZ         0.02827  -0.02956   0.12541  -0.05043  -0.01558
  81        6PX         0.03581  -1.94607   0.27103   0.35376  -0.67422
  82        6PY        -0.02373  -0.68881  -0.76091  -0.23185   0.68948
  83        6PZ         0.00932   0.31168  -0.26432  -0.01551  -0.13525
  84        7PX         0.01462  -1.18039  -1.10418  -0.07648   0.55443
  85        7PY        -0.00229   1.18509  -1.64227  -0.52993   0.16426
  86        7PZ        -0.00399   0.11146   0.15815  -0.33328   0.01439
  87        8D 0        0.00011  -0.07311   0.04337  -0.05065   0.17939
  88        8D+1       -0.00047  -0.00637   0.02115  -0.02365  -0.09183
  89        8D-1       -0.00210   0.02170  -0.03907   0.05332  -0.03133
  90        8D+2       -0.00223  -0.20997  -0.01715  -0.01878  -0.04405
  91        8D-2       -0.00187   0.05125  -0.07729  -0.04801   0.02036
  92        9D 0       -0.00049  -0.15858  -0.41523   0.07229  -0.08526
  93        9D+1       -0.00086  -0.00769  -0.00806   0.08695   0.11077
  94        9D-1       -0.00043  -0.08377   0.17151  -0.06715  -0.00066
  95        9D+2        0.00005   0.27052  -0.25392  -0.43523   0.09767
  96        9D-2       -0.00349   0.46502   0.37251   0.28891   0.13043
  97 7   O  1S          0.26059  -0.05572   0.00582   0.01478   0.00588
  98        2S         -0.00540  -0.80477   0.11313   0.35674   0.10635
  99        3S         -0.03712   3.77254  -0.98125  -1.51053  -0.22302
 100        4S         -0.02101   0.04525   4.35526  -0.14968  -3.56166
 101        5PX         0.04968  -0.00346   0.01401   0.02397   0.08164
 102        5PY         0.00027  -0.11370  -0.06763  -0.13400  -0.00318
 103        5PZ         0.21078   0.03626   0.06351  -0.14353  -0.07068
 104        6PX         0.02151  -0.32126  -0.39856  -0.92421  -0.75877
 105        6PY        -0.00868   1.10192   0.54402   1.06211   0.52999
 106        6PZ         0.14418  -0.10596  -0.33570   0.46165   0.08352
 107        7PX         0.00712   0.06663  -0.47869  -1.17040  -1.57898
 108        7PY        -0.00894  -0.13735  -0.47346   1.32725  -0.97243
 109        7PZ         0.03153  -0.03972  -0.12159  -0.17037  -0.22057
 110        8D 0        0.00050  -0.04420  -0.00242   0.02656   0.00196
 111        8D+1        0.00115  -0.00304  -0.02254   0.01225   0.04135
 112        8D-1        0.00539  -0.01335   0.07051  -0.09751  -0.01621
 113        8D+2        0.00005   0.05860  -0.00652   0.14142   0.08180
 114        8D-2        0.00292  -0.04974   0.07567  -0.03112  -0.02122
 115        9D 0        0.00113   0.03561  -0.28517   0.12748   0.34038
 116        9D+1        0.00060   0.05264   0.03661  -0.10314   0.05542
 117        9D-1        0.00819  -0.01450  -0.20521   0.21290   0.02426
 118        9D+2       -0.00065  -0.03747   0.37642  -0.85684  -0.32384
 119        9D-2        0.00141  -0.10256  -0.62131  -0.06988  -0.13374
 120 8   H  1S          0.03103   0.04947   0.16027   0.54093   0.24893
 121        2S          0.00420  -0.62213  -1.28211   2.09613   5.70009
 122        3S          0.00420  -2.33282   0.40342  -0.32075   2.50605
 123        4PX        -0.00355   0.28430  -0.16748  -0.11624  -0.36573
 124        4PY         0.00009  -0.03829   0.02686  -0.22481  -0.13282
 125        4PZ         0.00843  -0.02018   0.07489  -0.07952  -0.02498
 126        5PX         0.00157  -0.04671   0.22116  -0.92440  -1.49376
 127        5PY         0.00435   0.14162   0.55201  -1.17794   0.05833
 128        5PZ         0.00434   0.00386  -0.03316   0.14264   0.24141
                          21        22        23        24        25
     Eigenvalues --     0.00000   0.00000   0.00000   0.00000   0.00000
   1 1   C  1S          0.15812   0.08825   0.00212   0.05351  -0.00093
   2        2S          1.07843   0.53446  -0.18306   0.16568  -0.10646
   3        3S        -16.71285  -6.28302   1.20370  -0.76208   0.40473
   4        4S          7.06181 -28.51421  -4.32795  -6.73395  -0.55650
   5        5PX        -0.17731   0.04098  -0.09713   0.05399  -0.09432
   6        5PY         0.15822   0.15366   0.02230  -0.07486  -0.05492
   7        5PZ         0.03013   0.03704  -0.00674  -0.01751  -0.09712
   8        6PX        -6.51520   6.63770   0.37535  -0.32223  -1.23941
   9        6PY        -7.06410  -1.37308  -2.52454   1.96870   0.96921
  10        6PZ         1.61346   1.09872   0.76047   0.91319   0.92901
  11        7PX         2.41542  -5.25612  -2.62505  -1.65247   0.19480
  12        7PY        -1.64965  -0.56773   0.92954   0.13945   0.05732
  13        7PZ         0.47241   0.92717  -0.08263  -1.84570   0.36767
  14        8D 0        0.01127  -0.02397   0.05342  -0.13398   0.00944
  15        8D+1        0.07961   0.06769   0.07689  -0.03703   0.04315
  16        8D-1        0.00716  -0.10928   0.02377   0.00897   0.01044
  17        8D+2       -0.18022  -0.13316   0.23088  -0.06129  -0.07912
  18        8D-2       -0.15363   0.11741   0.18586   0.13188  -0.09425
  19        9D 0        0.84337   0.87926   0.62608   0.09058  -0.17157
  20        9D+1       -1.37530  -0.42052  -1.70482   1.96202   0.37997
  21        9D-1       -0.29679   0.10074  -0.19176  -0.76064   0.53612
  22        9D+2       -1.48905   3.70254   0.49430  -0.65567   0.54410
  23        9D-2        1.18366  -2.28720  -3.23420   1.25194  -0.48895
  24 2   H  1S          0.50903   0.26144   0.57557   0.00911   0.02917
  25        2S          9.23761   7.26483  -4.61938   1.25489  -4.20696
  26        3S          0.47160   0.50015  -2.09548  -1.05921   0.33922
  27        4PX         0.00844   0.07340   0.10151   0.06404  -0.09537
  28        4PY        -0.03214  -0.07869  -0.25040   0.01392   0.07122
  29        4PZ        -0.11904  -0.01820   0.02657  -0.03291  -0.07218
  30        5PX         1.50381   2.49546  -0.34946  -0.25074  -0.56380
  31        5PY        -3.32037  -0.30920   1.70968  -0.38791   1.74252
  32        5PZ        -0.18595  -0.25538  -0.27577   1.02124  -0.05878
  33 3   H  1S          0.20324   0.10955  -0.11116  -0.28959   0.15264
  34        2S         -8.23327   4.91680  -2.32940   0.62339   1.66252
  35        3S          0.18988  -0.83266  -0.11870   1.91289   0.08732
  36        4PX         0.06174   0.05682   0.08098   0.01857  -0.08901
  37        4PY         0.07930  -0.00590   0.00796  -0.05739  -0.06851
  38        4PZ        -0.12471  -0.30840  -0.00795  -0.13171  -0.08413
  39        5PX         0.50051  -0.04751  -0.63467  -0.68685   0.52479
  40        5PY        -0.95479  -0.63388  -0.43894   0.55252   0.19861
  41        5PZ         2.44813  -1.68475   0.34805  -0.14527  -0.50467
  42 4   H  1S          0.25382   0.05024  -0.02099   0.27812  -0.31240
  43        2S         -0.32778   8.60223   3.43313  -0.70814   1.66493
  44        3S          0.46509   0.78783  -0.33993  -1.52491  -0.33893
  45        4PX         0.01956  -0.11541  -0.07090   0.09648   0.04355
  46        4PY         0.12933   0.07626  -0.04696  -0.07499  -0.04583
  47        4PZ         0.03547   0.10742   0.04952   0.13151  -0.09366
  48        5PX         0.27023   0.14077  -1.28753   0.56491   0.67730
  49        5PY         0.66580   0.18519   0.96040  -0.61478   0.58050
  50        5PZ         0.00560   2.60545   1.51828  -0.04008   0.57085
  51 5   C  1S         -0.10303   0.04915  -0.01225  -0.09445  -0.05380
  52        2S         -0.41019   0.30670   0.11777  -0.46172  -0.37429
  53        3S         13.25163  -0.88887   4.55864   2.10564   1.00813
  54        4S        -14.24076  29.93448  13.80794   8.72012   0.84675
  55        5PX         0.38725   0.06006   0.20763  -0.09753  -0.22206
  56        5PY         0.05265  -0.05545   0.15933   0.11784   0.12964
  57        5PZ        -0.17600  -0.02355  -0.06248  -0.02535   0.24627
  58        6PX        -4.90244   5.56984  -1.44261  -0.57916   0.21896
  59        6PY        -1.99953   5.86768   4.77508   2.20645   0.10429
  60        6PZ         1.21188   0.17536   1.35212  -1.66825   1.12802
  61        7PX         0.89263  -7.20360  -0.80717  -3.03415  -0.68530
  62        7PY         3.44113  -1.69653  -1.12573  -0.14733  -0.34317
  63        7PZ        -0.11660  -0.52129   0.24210   0.84186  -0.79473
  64        8D 0       -0.19609  -0.14354   0.06495   0.11581   0.18611
  65        8D+1        0.08545   0.02782  -0.03704  -0.04364   0.20630
  66        8D-1        0.00690   0.05380   0.04414   0.01993   0.08988
  67        8D+2       -0.01164  -0.24029  -0.49410  -0.07762   0.01287
  68        8D-2        0.02328   0.04795   0.05608   0.11236   0.18068
  69        9D 0       -1.89255  -0.35994  -0.52043   0.05954  -0.61715
  70        9D+1       -0.64295  -0.07922  -1.01469   0.96520   1.78323
  71        9D-1       -0.10516  -0.19364  -0.10736   0.53914   0.10012
  72        9D+2        5.37073  -0.43805  -0.18783  -2.31245   0.40008
  73        9D-2        0.11632  -2.77320  -2.76803   3.41081  -1.54476
  74 6   O  1S          0.04105   0.02764   0.03391   0.05410   0.00107
  75        2S          0.36237   0.39231   0.56252   0.36965  -0.07404
  76        3S         -1.09805  -2.01193  -2.08855  -3.19739   0.25145
  77        4S          2.13354  -8.63943  -3.42743  -4.93431   0.70548
  78        5PX         0.10705  -0.06240  -0.10148   0.04493  -0.00770
  79        5PY        -0.04334  -0.16488   0.11514   0.15865   0.05050
  80        5PZ        -0.03432   0.01968   0.01703   0.04585   0.28003
  81        6PX        -0.42737   1.03766   2.09515   0.39228   0.22704
  82        6PY         1.89546   1.30938   0.47290   0.33024  -0.03348
  83        6PZ        -0.05508   0.06715   0.07569  -0.00996  -1.25586
  84        7PX        -0.89497   2.55721   0.75842   1.03015   0.53525
  85        7PY        -1.00078   2.23236   0.31307   1.17090  -0.41489
  86        7PZ         0.11947   0.17874  -0.09189  -0.29466  -0.16665
  87        8D 0       -0.13010   0.06465   0.15911   0.00761  -0.00708
  88        8D+1       -0.01528  -0.10960  -0.04759   0.12832   0.05783
  89        8D-1       -0.05362  -0.02540   0.04180  -0.00759  -0.21676
  90        8D+2        0.05541   0.05789   0.08115   0.07537   0.03975
  91        8D-2        0.00229  -0.05587   0.08049   0.05024  -0.01983
  92        9D 0        0.53144   0.33278   0.03939  -0.33229   0.11019
  93        9D+1        0.20235   0.05471   0.16721   0.00804  -0.04361
  94        9D-1       -0.03543  -0.01345  -0.02540   0.01000   0.80136
  95        9D+2        0.07835   0.05601  -0.47881  -0.08217  -0.13132
  96        9D-2       -0.02552  -0.07152  -0.59538   0.01577  -0.03039
  97 7   O  1S         -0.02661  -0.00259  -0.02314  -0.00154  -0.03183
  98        2S         -0.12422   0.26881  -0.17189  -0.28074  -0.38674
  99        3S          1.61810  -0.90901   0.84599   0.92713   1.07964
 100        4S         15.96067  -5.27510  -4.56348  -2.17176   0.19085
 101        5PX         0.00515  -0.00502  -0.00054   0.05027   0.17584
 102        5PY         0.00695   0.01947  -0.08056  -0.12035   0.01284
 103        5PZ        -0.04679   0.17863  -0.00936   0.13897   0.25192
 104        6PX         1.52651  -0.92413   0.75152   0.07004   0.48760
 105        6PY        -1.15009  -0.88607   0.01219   1.13170   0.13128
 106        6PZ        -0.07890  -0.14918   0.09528   0.31351  -0.95730
 107        7PX         0.76487   0.92147  -0.17915  -0.58732   0.18841
 108        7PY         3.06646  -0.62381  -1.42460  -0.03960   0.19375
 109        7PZ         0.04650   0.10013  -0.27718  -0.13158  -0.07230
 110        8D 0       -0.15884   0.08936  -0.07040  -0.07256  -0.03217
 111        8D+1        0.04124   0.02261   0.04293   0.05435  -0.09125
 112        8D-1       -0.02259   0.04600  -0.01578  -0.03323   0.17775
 113        8D+2       -0.08027   0.04867   0.08715   0.08740   0.07155
 114        8D-2        0.04455   0.04830   0.25696   0.02899  -0.07881
 115        9D 0        0.30700   0.25108   0.28855   0.04692  -0.17039
 116        9D+1        0.01411   0.10673   0.00302   0.00940  -0.10483
 117        9D-1       -0.00034  -0.00039   0.09432   0.06276  -0.73872
 118        9D+2        0.99314   0.02100   0.00316  -0.51539   0.07623
 119        9D-2        0.25775  -0.23112   0.22573  -0.01929  -0.04627
 120 8   H  1S         -0.41198   0.35253  -0.52068  -0.19785  -0.52462
 121        2S        -12.99529   0.42669  -0.08944   4.70458  -2.73457
 122        3S          0.24565   0.38587  -0.98876   1.17976  -0.06406
 123        4PX         0.21978  -0.24900   0.14085   0.03651   0.26764
 124        4PY         0.18156  -0.07424  -0.00637  -0.15316   0.01475
 125        4PZ        -0.03707   0.01505   0.06538  -0.00353   0.19869
 126        5PX         3.93675   0.04570   0.49361  -1.48544   1.09893
 127        5PY        -1.05539  -0.06817   0.01402   0.42024  -0.42675
 128        5PZ         0.15758  -0.09560   0.20088  -0.35139  -0.20730
                          26        27        28        29        30
     Eigenvalues --     0.00000   0.00000   0.00000   0.00000   0.00000
   1 1   C  1S         -0.12585  -0.06477   0.07944  -0.02004  -0.03876
   2        2S         -0.42838  -0.45643   0.67864  -0.24918   0.14608
   3        3S          9.87869   4.16485  -2.60014   6.03441   6.04692
   4        4S         -5.59133  -4.07855  -5.03803  -0.51334  -3.15189
   5        5PX         0.00659   0.01766  -0.09324  -0.06503   0.14386
   6        5PY         0.11973  -0.06932   0.00212  -0.03849   0.07246
   7        5PZ        -0.21766  -0.01252   0.23079  -0.08439  -0.04331
   8        6PX        14.44431   4.48309   4.85468   7.79610   0.91902
   9        6PY         2.62193   3.42232  -0.64265   2.62499  -0.08607
  10        6PZ        10.17152   0.30250  -5.92433   3.71400   1.27750
  11        7PX         0.44000  -0.43124  -0.75282  -0.03379  -1.37651
  12        7PY         0.22884  -0.50209  -0.02890   0.61582  -0.40477
  13        7PZ         1.39547   1.04201  -2.19632   1.95817   0.73838
  14        8D 0       -0.17292   0.00388   0.05751   0.04506  -0.19354
  15        8D+1       -0.10981   0.03468  -0.04885  -0.03057  -0.06661
  16        8D-1       -0.14994   0.13348   0.19492   0.01083  -0.12025
  17        8D+2        0.27385   0.16378   0.14852   0.15850  -0.00881
  18        8D-2        0.01695   0.17348   0.08699   0.39046  -0.03529
  19        9D 0       -0.89519  -1.81976   0.06538  -0.52762   0.86356
  20        9D+1       -0.27790  -0.01019   2.32026  -2.14186   0.87288
  21        9D-1       -1.95345  -0.81793   0.79144  -0.54698  -0.20121
  22        9D+2        2.64922  -0.35050   0.72725   1.68388   0.65552
  23        9D-2        1.30767   0.97109   0.21533   0.50479   0.03685
  24 2   H  1S          0.28840  -0.13628   0.71821   0.21178  -0.04304
  25        2S          4.73266  -3.77493   3.97427   1.23216   0.65722
  26        3S         -0.23542   0.05364   0.49505  -0.39219  -0.48451
  27        4PX        -0.07355  -0.07903   0.00097  -0.08251   0.05557
  28        4PY        -0.09057  -0.26110  -0.16295   0.16556   0.13182
  29        4PZ        -0.12957   0.02788   0.14399  -0.05798  -0.13896
  30        5PX        -0.29468  -2.07337   0.21407  -0.05455   0.37905
  31        5PY        -0.98372   0.73532  -0.82308  -0.02785   0.05154
  32        5PZ         0.49042   0.52466   0.36267  -0.55249   0.28726
  33 3   H  1S         -0.65080   0.18818   0.26705  -0.22176   0.00434
  34        2S        -10.31145   1.61097  13.61002  -4.31592  -3.82750
  35        3S         -0.15495  -1.20741   1.54675  -1.39094  -1.55634
  36        4PX        -0.14759   0.01527  -0.17958  -0.12205  -0.13604
  37        4PY        -0.18401   0.07885   0.01323  -0.00900  -0.05309
  38        4PZ         0.07805  -0.27031   0.07936  -0.11473  -0.09876
  39        5PX        -1.68149  -0.46245   0.49419   0.38724  -1.00921
  40        5PY        -2.06610   1.05986   2.54802  -1.29648  -1.03255
  41        5PZ         3.14589   0.62011  -3.96082   1.25178   0.72283
  42 4   H  1S          0.71519  -0.00089  -0.15860   0.11505  -0.21729
  43        2S         18.56010   5.51826  -8.23277  10.78373  -0.02647
  44        3S          1.42508   1.90353  -1.27859   1.82833   0.21249
  45        4PX        -0.03616  -0.06485   0.04991  -0.12038  -0.03645
  46        4PY         0.14416  -0.09921  -0.09869  -0.00909  -0.13690
  47        4PZ         0.09033  -0.07609   0.01035   0.06009  -0.15567
  48        5PX         1.32004   0.13504  -0.36002   0.54486   0.40552
  49        5PY         2.65930   1.39322  -1.73924   1.91711  -0.44456
  50        5PZ         5.22470   0.55165  -2.55018   3.12065   0.53129
  51 5   C  1S          0.16485   0.02240   0.00200   0.01218   0.01317
  52        2S          0.69266   0.24133   0.11848   0.13628   0.75538
  53        3S        -18.37095 -10.18316   3.59433  -8.15178   2.48659
  54        4S          1.83485  -3.34300   9.59094   4.48408  10.84521
  55        5PX        -0.26931  -0.12751   0.16521  -0.08446   0.14756
  56        5PY        -0.00125  -0.06634   0.05114   0.15975  -0.22029
  57        5PZ        -0.09419  -0.01699   0.04370  -0.11315  -0.00888
  58        6PX        12.33973   1.13438   6.27524   7.76758   3.45847
  59        6PY         2.81966  -3.61735  -0.08558   2.36258   0.96952
  60        6PZ        -0.20302   0.70086  -1.56137   1.46668  -0.42742
  61        7PX        -1.75425  -1.43957   1.32894   1.33834  -2.05256
  62        7PY         0.26824   0.98017  -1.60145  -0.81689   0.04743
  63        7PZ        -0.30054   0.15588   1.11829  -0.59510  -0.24227
  64        8D 0        0.25829   0.43555  -0.35023   0.16593  -0.32295
  65        8D+1        0.14658   0.07922  -0.06291   0.02634   0.05503
  66        8D-1        0.04267   0.05698  -0.04975   0.10930  -0.06208
  67        8D+2       -0.09863  -0.46046  -0.53105   0.07848  -0.11158
  68        8D-2        0.02146  -0.12032  -0.05598  -0.00313  -0.35611
  69        9D 0        0.84202   0.08584  -0.95044   1.03191  -0.14915
  70        9D+1        0.20532  -0.02590   1.12638  -1.12641   0.42726
  71        9D-1        0.04131   0.34324   0.56607  -0.34977  -0.45465
  72        9D+2       -3.32383  -1.13829  -1.37989  -3.08066  -2.73590
  73        9D-2       -0.56942  -1.44158  -1.56231   0.07390   0.08276
  74 6   O  1S         -0.00812  -0.04147   0.02969   0.00965   0.03614
  75        2S         -0.00984  -0.38695   0.48627   0.17370   0.20989
  76        3S         -0.53221   2.81726  -2.49837  -1.09847  -2.10736
  77        4S         -2.28290   5.74488  -4.42782  -4.06792  -4.56787
  78        5PX        -0.06098  -0.06548  -0.01680   0.12857  -0.13982
  79        5PY        -0.01412   0.25530  -0.02820   0.06122   0.04656
  80        5PZ        -0.05402   0.05212  -0.07690  -0.07201   0.04191
  81        6PX        -0.33359   0.10559   1.00330   0.07263   0.96648
  82        6PY        -0.76707  -1.87807   1.20169   0.11908   0.44085
  83        6PZ        -0.00369  -0.36769  -0.10081   0.08470   0.11862
  84        7PX         0.88845  -0.76543   0.06059   0.18982   1.63994
  85        7PY         0.59453  -1.76809   1.18250   0.91029   0.19553
  86        7PZ        -0.10139  -0.36311  -0.36933   0.22285   0.04168
  87        8D 0       -0.08614  -0.08747  -0.10480  -0.04474  -0.02607
  88        8D+1        0.08097  -0.14779   0.03310  -0.07228  -0.00366
  89        8D-1        0.03278  -0.05122  -0.04926  -0.03354  -0.06837
  90        8D+2        0.02804  -0.06499  -0.06329  -0.02645  -0.10868
  91        8D-2       -0.03088   0.09637  -0.04516  -0.02418   0.10193
[...]
     10  0.411392D-02 -0.570460D-02 -0.569742D-02  0.168928D-01 -0.351757D-02
     11 -0.927632D-03  0.468078D-02  0.468115D-02 -0.154479D-01 -0.379010D-02
     12 -0.567422D-02  0.502961D-02 -0.669276D-02  0.122208D-01  0.500588D-02
     13 -0.567249D-02 -0.669640D-02  0.501123D-02  0.122612D-01  0.504476D-02
     14 -0.645331D-02  0.435193D-02  0.439437D-02  0.932456D-02  0.115017D-01
     15  0.671851D-02 -0.360161D-02 -0.365159D-02  0.227371D-01 -0.506900D-01
     16 -0.265195D-03 -0.749970D-03 -0.743140D-03 -0.320616D-01  0.391883D-01
     17  0.664855D-03  0.781695D-04  0.781211D-04  0.453853D-02  0.404587D-02
     18 -0.551635D-05  0.518252D-02 -0.517584D-02 -0.972301D-05  0.371065D-05
     19 -0.273156D-05  0.364530D-02 -0.363832D-02 -0.250162D-04 -0.484103D-05
     20 -0.395175D-02  0.509148D-03  0.419864D-02 -0.210190D-02  0.692596D-03
     21 -0.394896D-02 -0.102807D-02  0.573615D-02 -0.211719D-02  0.684044D-03
     22  0.394589D-02 -0.420102D-02 -0.503290D-03  0.212277D-02 -0.682754D-03
     23  0.394868D-02 -0.573824D-02  0.103422D-02  0.210748D-02 -0.691305D-03
     24 -0.323031D-05  0.121276D-02 -0.121408D-02  0.187395D-04  0.708994D-05
     25  0.000000D+00 -0.255437D-03  0.252570D-03 -0.256111D-05  0.296994D-05
                6             7             8             9            10 
      6  0.370065D+00
      7  0.101957D-01  0.503803D+00
      8 -0.341561D-02 -0.109577D-03  0.523323D-01
      9 -0.341091D-02 -0.102981D-03  0.691900D-02  0.523375D-01
     10  0.751552D-02  0.151172D-02 -0.375339D-01 -0.375208D-01  0.104576D+00
     11 -0.559222D-05  0.118321D-03  0.635303D-02  0.635766D-02  0.887906D-02
     12 -0.435902D-03 -0.727398D-03 -0.357491D-01  0.850504D-02 -0.206067D-01
     13 -0.443925D-03 -0.737796D-03  0.850392D-02 -0.357748D-01 -0.206277D-01
     14 -0.454392D-01  0.280363D-02  0.197175D-02  0.193705D-02 -0.173332D-01
     15  0.278309D-01  0.799028D-02 -0.473838D-02 -0.470367D-02  0.208586D-01
     16  0.176083D-01 -0.107939D-01  0.276606D-02  0.276719D-02 -0.352539D-02
     17  0.331151D-01  0.260530D-01 -0.139889D-02 -0.139360D-02  0.529157D-02
     18  0.681634D-05 -0.106781D-05  0.853485D-02 -0.852806D-02 -0.929744D-05
     19 -0.804299D-05 -0.252539D-05  0.109994D-01 -0.109945D-01  0.112053D-04
     20 -0.258880D-03 -0.365133D-03 -0.983709D-02  0.133117D-02 -0.689735D-02
     21 -0.273740D-03 -0.366591D-03 -0.737257D-02 -0.113531D-02 -0.687685D-02
     22  0.272663D-03  0.364514D-03 -0.133044D-02  0.984724D-02  0.687430D-02
     23  0.257804D-03  0.363057D-03  0.113407D-02  0.738076D-02  0.689480D-02
     24 -0.130784D-04  0.367677D-05 -0.169617D-02  0.169548D-02 -0.205004D-04
     25 -0.162726D-04  0.000000D+00  0.656302D-03 -0.658705D-03  0.166007D-05
               11            12            13            14            15 
     11  0.511552D-01
     12 -0.364067D-01  0.983883D-01
     13 -0.364353D-01 -0.134529D-01  0.984721D-01
     14 -0.834908D-02  0.110837D-01  0.111853D-01  0.149949D+00
     15  0.506937D-02 -0.850066D-02 -0.857397D-02 -0.572421D-01  0.160326D+00
     16  0.327971D-02 -0.258145D-02 -0.261299D-02 -0.927073D-01 -0.103084D+00
     17  0.459364D-03 -0.154912D-02 -0.156038D-02  0.242412D-02  0.282859D-01
     18 -0.351855D-05  0.951240D-02 -0.950728D-02 -0.762005D-05  0.320927D-05
     19  0.456082D-05  0.244228D-02 -0.246397D-02  0.000000D+00 -0.966473D-05
     20  0.944053D-02  0.479327D-02  0.151731D-02  0.155654D-02 -0.200174D-02
     21  0.944861D-02 -0.227685D-02  0.856062D-02  0.156473D-02 -0.201462D-02
     22 -0.945740D-02 -0.149429D-02 -0.478638D-02 -0.155003D-02  0.200371D-02
     23 -0.944932D-02 -0.856441D-02  0.225694D-02 -0.154183D-02  0.199084D-02
     24 -0.621023D-05  0.420405D-02 -0.417625D-02  0.159662D-04  0.165889D-04
     25  0.352768D-05 -0.254683D-02  0.254420D-02 -0.178870D-04 -0.144195D-05
               16            17            18            19            20 
     16  0.195791D+00
     17 -0.307100D-01  0.174494D+00
     18  0.747966D-05  0.233007D-05  0.181698D-01
     19  0.625424D-05  0.000000D+00  0.487170D-02  0.171638D-01
     20  0.447953D-03 -0.645467D-03  0.164726D-02 -0.102581D-01  0.151480D-01
     21  0.446727D-03 -0.648605D-03 -0.116508D-01  0.203395D-02  0.324259D-02
     22 -0.450938D-03  0.649230D-03  0.164858D-02 -0.102507D-01 -0.120436D-03
     23 -0.452163D-03  0.646092D-03 -0.116495D-01  0.204135D-02 -0.120258D-01
     24 -0.295794D-04 -0.476082D-05  0.630057D-02 -0.659378D-02  0.576266D-02
     25  0.166677D-04 -0.129975D-04 -0.639253D-02  0.513908D-02 -0.560131D-02
               21            22            23            24            25 
     21  0.169274D-01
     22 -0.120197D-01  0.151507D-01
     23  0.166502D-02  0.325143D-02  0.169423D-01
     24 -0.713169D-02  0.575369D-02 -0.714066D-02  0.169028D-01
     25  0.593030D-02 -0.560406D-02  0.592755D-02  0.459506D-02  0.156021D-01
 Leave Link  716 at Sat Aug  1 14:57:25 2020, MaxMem=   524288000 cpu:               0.2 elap:               0.0
 (Enter /home/ubuntu/g16/l103.exe)

 GradGradGradGradGradGradGradGradGradGradGradGradGradGradGradGradGradGrad
 Berny optimization.
 Red2BG is reusing G-inverse.
 Internal  Forces:  Max     0.000043172 RMS     0.000020128
 Search for a local minimum.
 Step number   1 out of a maximum of    2
 All quantities printed in internal units (Hartrees-Bohrs-Radians)
 Second derivative matrix not updated -- analytic derivatives used.
 ITU=  0
     Eigenvalues ---    0.00036   0.02081   0.04660   0.05361   0.05374
     Eigenvalues ---    0.12151   0.13003   0.13620   0.15394   0.20254
     Eigenvalues ---    0.25550   0.33725   0.33938   0.34508   0.35285
     Eigenvalues ---    0.38812   0.50859   0.85888
 Angle between quadratic step and forces=  82.05 degrees.
 Linear search not attempted -- first point.
 Iteration  1 RMS(Cart)=  0.00144465 RMS(Int)=  0.00000113
 Iteration  2 RMS(Cart)=  0.00000115 RMS(Int)=  0.00000001
 Iteration  3 RMS(Cart)=  0.00000000 RMS(Int)=  0.00000001
 ITry= 1 IFail=0 DXMaxC= 3.09D-03 DCOld= 1.00D+10 DXMaxT= 3.00D-01 DXLimC= 3.00D+00 Rises=F
 Variable       Old X    -DE/DX   Delta X   Delta X   Delta X     New X
                                 (Linear)    (Quad)   (Total)
    R1        2.06596  -0.00004   0.00000  -0.00012  -0.00012   2.06584
    R2        2.07567  -0.00003   0.00000  -0.00012  -0.00012   2.07556
    R3        2.07543   0.00004   0.00000   0.00013   0.00013   2.07556
    R4        2.84310   0.00001   0.00000   0.00007   0.00007   2.84317
    R5        2.28790   0.00000   0.00000   0.00001   0.00001   2.28791
    R6        2.57303   0.00001   0.00000   0.00001   0.00001   2.57304
    R7        1.83515  -0.00000   0.00000   0.00000   0.00000   1.83515
    A1        1.92376  -0.00001   0.00000  -0.00011  -0.00011   1.92365
    A2        1.92366   0.00001   0.00000  -0.00002  -0.00002   1.92364
    A3        1.91015   0.00001   0.00000   0.00001   0.00001   1.91016
    A4        1.87371   0.00004   0.00000   0.00043   0.00043   1.87414
    A5        1.91617  -0.00004   0.00000  -0.00016  -0.00016   1.91601
    A6        1.91615  -0.00001   0.00000  -0.00015  -0.00015   1.91601
    A7        2.20127  -0.00001   0.00000  -0.00003  -0.00003   2.20124
    A8        1.94923   0.00001   0.00000   0.00003   0.00003   1.94926
    A9        2.13269   0.00000   0.00000  -0.00000  -0.00000   2.13269
   A10        1.86311  -0.00000   0.00000  -0.00003  -0.00003   1.86307
    D1        0.00292  -0.00001   0.00000  -0.00296  -0.00296  -0.00004
    D2       -3.13841  -0.00003   0.00000  -0.00322  -0.00322   3.14156
    D3       -2.11075   0.00002   0.00000  -0.00273  -0.00273  -2.11348
    D4        1.03110   0.00000   0.00000  -0.00299  -0.00299   1.02811
    D5        2.11646   0.00001   0.00000  -0.00307  -0.00307   2.11339
    D6       -1.02487  -0.00001   0.00000  -0.00333  -0.00333  -1.02820
    D7       -3.14112   0.00000   0.00000  -0.00047  -0.00047   3.14159
    D8        0.00072  -0.00002   0.00000  -0.00072  -0.00072  -0.00000
         Item               Value     Threshold  Converged?
 Maximum Force            0.000043     0.000450     YES
 RMS     Force            0.000020     0.000300     YES
 Maximum Displacement     0.003085     0.001800     NO 
 RMS     Displacement     0.001445     0.001200     NO 
 Predicted change in Energy=-5.259223D-08
                           ----------------------------
                           ! Non-Optimized Parameters !
                           ! (Angstroms and Degrees)  !
 --------------------------                            --------------------------
 ! Name  Definition              Value          Derivative Info.                !
 --------------------------------------------------------------------------------
 ! R1    R(1,2)                  1.0932         -DE/DX =    0.0                 !
 ! R2    R(1,3)                  1.0983         -DE/DX =    0.0                 !
 ! R3    R(1,4)                  1.0983         -DE/DX =    0.0                 !
 ! R4    R(1,5)                  1.5045         -DE/DX =    0.0                 !
 ! R5    R(5,6)                  1.2107         -DE/DX =    0.0                 !
 ! R6    R(5,7)                  1.3616         -DE/DX =    0.0                 !
 ! R7    R(7,8)                  0.9711         -DE/DX =    0.0                 !
 ! A1    A(2,1,3)              110.2168         -DE/DX =    0.0                 !
 ! A2    A(2,1,4)              110.2166         -DE/DX =    0.0                 !
 ! A3    A(2,1,5)              109.444          -DE/DX =    0.0                 !
 ! A4    A(3,1,4)              107.3804         -DE/DX =    0.0                 !
 ! A5    A(3,1,5)              109.7793         -DE/DX =    0.0                 !
 ! A6    A(4,1,5)              109.7791         -DE/DX =    0.0                 !
 ! A7    A(1,5,6)              126.1217         -DE/DX =    0.0                 !
 ! A8    A(1,5,7)              111.6844         -DE/DX =    0.0                 !
 ! A9    A(6,5,7)              122.1939         -DE/DX =    0.0                 !
 ! A10   A(5,7,8)              106.7462         -DE/DX =    0.0                 !
 ! D1    D(2,1,5,6)             -0.0023         -DE/DX =    0.0                 !
 ! D2    D(2,1,5,7)            179.9979         -DE/DX =    0.0                 !
 ! D3    D(3,1,5,6)           -121.0935         -DE/DX =    0.0                 !
 ! D4    D(3,1,5,7)             58.9066         -DE/DX =    0.0                 !
 ! D5    D(4,1,5,6)            121.0885         -DE/DX =    0.0                 !
 ! D6    D(4,1,5,7)            -58.9114         -DE/DX =    0.0                 !
 ! D7    D(1,5,7,8)            179.9998         -DE/DX =    0.0                 !
 ! D8    D(6,5,7,8)             -0.0001         -DE/DX =    0.0                 !
 --------------------------------------------------------------------------------
 GradGradGradGradGradGradGradGradGradGradGradGradGradGradGradGradGradGrad

 Leave Link  103 at Sat Aug  1 14:57:25 2020, MaxMem=   524288000 cpu:               0.1 elap:               0.0
 (Enter /home/ubuntu/g16/l9999.exe)

 ----------------------------------------------------------------------

 Electric dipole moment (input orientation):
 (Debye = 10**-18 statcoulomb cm , SI units = C m)
                  (au)            (Debye)         (10**-30 SI)
   Tot        0.709822D+00      0.180419D+01      0.601812D+01
   x         -0.409849D+00     -0.104173D+01     -0.347485D+01
   y          0.263062D+00      0.668637D+00      0.223033D+01
   z         -0.516400D+00     -0.131256D+01     -0.437822D+01

 Dipole polarizability, Alpha (input orientation).
 (esu units = cm**3 , SI units = C**2 m**2 J**-1)
 Alpha(0;0):
               (au)            (10**-24 esu)      (10**-40 SI)
   iso        0.346975D+02      0.514164D+01      0.572084D+01
   aniso      0.121787D+02      0.180469D+01      0.200799D+01
   xx         0.307381D+02      0.455492D+01      0.506803D+01
   yx        -0.225958D+01     -0.334835D+00     -0.372554D+00
   yy         0.367956D+02      0.545255D+01      0.606678D+01
   zx         0.527973D+01      0.782376D+00      0.870510D+00
   zy         0.216501D+01      0.320821D+00      0.356962D+00
   zz         0.365587D+02      0.541744D+01      0.602772D+01

 ----------------------------------------------------------------------

 Dipole orientation:
     6          3.89306149         -1.32569253         -7.77772870
     1          4.20194870          0.36937156         -8.91769640
     1          5.53153310         -1.67452646         -6.55210669
     1          2.24191771         -1.07088437         -6.54638338
     6          3.48063581         -3.55649636         -9.49139014
     8          3.48867267         -3.51967762        -11.77897887
     8          3.07858770         -5.71913927         -8.15654574
     1          2.83161266         -7.06034775         -9.38452797

 Electric dipole moment (dipole orientation):
 (Debye = 10**-18 statcoulomb cm , SI units = C m)
                  (au)            (Debye)         (10**-30 SI)
   Tot        0.709822D+00      0.180419D+01      0.601812D+01
   x          0.000000D+00      0.000000D+00      0.000000D+00
   y          0.000000D+00      0.000000D+00      0.000000D+00
   z          0.709822D+00      0.180419D+01      0.601812D+01

 Dipole polarizability, Alpha (dipole orientation).
 (esu units = cm**3 , SI units = C**2 m**2 J**-1)
 Alpha(0;0):
               (au)            (10**-24 esu)      (10**-40 SI)
   iso        0.346975D+02      0.514164D+01      0.572084D+01
   aniso      0.121787D+02      0.180469D+01      0.200799D+01
   xx         0.270898D+02      0.401429D+01      0.446650D+01
   yx         0.211788D+01      0.313837D+00      0.349191D+00
   yy         0.381167D+02      0.564832D+01      0.628460D+01
   zx         0.210953D+00      0.312600D-01      0.347814D-01
   zy         0.116371D+01      0.172445D+00      0.191870D+00
   zz         0.388859D+02      0.576230D+01      0.641142D+01

 ----------------------------------------------------------------------
 1\1\GINC-LC06-1-2\Freq\UB3LYP\Aug-CC-pVDZ\C2H4O2\UBUNTU\01-Aug-2020\0\
 \#P Geom=AllCheck Guess=TCheck SCRF=Check GenChk UB3LYP/Aug-CC-pVDZ Fr
 eq\\HOAc_UB3LYP-aug-cc-pVDZ\\0,1\C,4.1258891873,-0.6243894203,2.064749
 5091\H,4.4950027754,-1.6533801233,2.0768082808\H,4.4739848988,-0.10670
 85431,1.1606934407\H,3.0278297471,-0.6152534272,2.0452342611\C,4.61958
 99163,0.0991374723,3.2879827252\O,5.3195711084,-0.3668998198,4.1589821
 141\O,4.181797284,1.3879995636,3.3210642612\H,4.5394450827,1.784294297
 8,4.1323054078\\Version=ES64L-G16RevA.03\State=1-A\HF=-229.1246127\S2=
 0.\S2-1=0.\S2A=0.\RMSD=7.801e-09\RMSF=2.518e-05\ZeroPoint=0.0613036\Th
 ermal=0.0658773\Dipole=-0.4098495,0.2630622,-0.5164004\DipoleDeriv=0.0
 14272,-0.053204,-0.1383736,-0.0221279,0.0096457,-0.077145,-0.1207891,-
 0.1282215,-0.1911449,0.06401,0.0531631,-0.0056861,0.0292242,-0.0416914
 ,-0.025781,-0.0193739,0.0136107,0.0623126,0.0761,-0.0303908,0.0524932,
 -0.046285,0.0271557,0.0427627,0.0150524,0.0279369,-0.0167635,-0.054511
 7,-0.0019274,-0.0131268,0.0073961,0.0721679,-0.0412349,0.0207741,-0.01
 55217,0.0686546,0.7133739,-0.4690252,0.5076308,-0.4390804,1.5890467,0.
 0685176,0.5249487,0.0197119,1.1023935,-0.6498732,0.2744191,-0.3187146,
 0.1456432,-0.7241628,0.0246769,-0.3933127,0.2345399,-0.8619105,-0.4443
 199,0.2280451,-0.0143029,0.3157698,-1.2606305,-0.0100655,0.0365382,-0.
 1531433,-0.3837823,0.2809489,-0.0010799,-0.06992,0.0094599,0.3284687,0
 .0182692,-0.0638377,0.0010871,0.2202405\Polar=30.7381002,-2.2595758,36
 .7956196,5.2797323,2.1650078,36.558718\Quadrupole=-0.9995259,0.7485549
 ,0.2509711,1.7866887,-1.1795978,3.1340522\PG=C01 [X(C2H4O2)]\NImag=0\\
 0.53722577,-0.03771024,0.58368033,-0.01007136,-0.03047636,0.49567299,-
 0.07897056,0.09306384,-0.00123226,0.08053377,0.08855983,-0.29479192,0.
 00149617,-0.09726117,0.31685032,-0.00381974,0.00886100,-0.04660591,0.0
 0339666,-0.00230738,0.04848812,-0.06560536,-0.04051329,0.07225244,0.00
 307117,0.00413122,-0.01018180,0.07197434,-0.04104670,-0.10656660,0.104
 02322,-0.01091800,-0.01051722,0.02317496,0.04592222,0.11024149,0.07319
 380,0.10366984,-0.22669344,-0.00090521,-0.00116719,0.00155696,-0.07683
 440,-0.11378411,0.24570812,-0.31467898,0.00220053,-0.00414007,-0.00740
 135,-0.00118097,0.00038551,-0.00942907,0.00048442,-0.00049163,0.340381
 50,0.00307057,-0.04530779,-0.00330067,0.02889231,0.00290484,0.00029253
 ,-0.01484085,-0.00062175,-0.00070512,-0.00238638,0.04313675,-0.0048576
 3,-0.00343014,-0.03914929,-0.00024976,0.00006070,-0.00138906,0.0269421
 6,-0.00043174,0.00125182,0.00552999,0.00237729,0.04467136,-0.09581654,
 -0.02265214,-0.02313132,0.00152293,0.00725972,0.01198604,0.00320724,0.
 00998018,0.01001314,-0.01172908,-0.01728228,-0.03096847,0.47382067,-0.
 02368147,-0.11699655,-0.05436605,-0.01162504,-0.01576988,-0.02621067,0
 .00660454,0.00940564,0.01708919,0.00237378,0.00017458,0.00206215,-0.14
 188796,0.56737585,-0.02377588,-0.05276227,-0.15880435,0.00115553,0.004
 65764,0.00127019,-0.01111041,-0.01231511,-0.02282918,-0.00047761,0.004
 89498,0.00132849,0.31817028,-0.03486993,0.72645719,0.00438463,0.010862
 04,-0.02871213,0.00010194,-0.00044963,0.00069921,-0.00290042,-0.003366
 88,-0.00350926,0.00112036,0.00066533,0.00141439,-0.29063736,0.12686082
 ,-0.27463683,0.29890976,-0.00113657,0.01529376,-0.00792379,-0.00007352
 ,0.00281785,0.00177570,-0.00192251,-0.00051911,-0.00402367,-0.00189836
 ,0.00041991,-0.00143787,0.13441188,-0.18650108,0.15569598,-0.18603429,
 0.21211641,-0.03566365,0.01164604,-0.02553858,0.00089992,0.00115686,0.
 00166767,-0.00169473,-0.00112562,-0.00150449,-0.00102509,-0.00251729,-
 0.00648509,-0.27027156,0.14340359,-0.43449735,0.33046428,-0.19776866,0
 .45410239,0.01103984,-0.00826203,-0.00399194,0.00032398,-0.00150335,-0
 .00251905,-0.00010317,-0.00105657,-0.00078803,0.00133924,0.00156699,0.
 00180317,-0.09064199,0.03682064,-0.02356061,-0.00528175,0.05800221,-0.
 02220719,0.17429592,0.00747933,-0.02957874,-0.01105177,-0.00155149,-0.
 00092653,-0.00384675,0.00050122,-0.00173533,-0.00097895,0.00036113,-0.
 00103296,0.00033978,0.04946987,-0.23000353,-0.01604798,0.05327164,-0.0
 5143315,0.04024280,-0.04176550,0.42306193,0.00511163,-0.03670801,-0.00
 233163,-0.00255157,-0.00374693,-0.00499982,0.00060445,0.00003812,0.002
 09722,0.00062336,-0.00125316,-0.00002503,-0.01624965,-0.03662074,-0.11
 073888,-0.02494837,0.04796751,0.01607330,0.19816307,0.15485738,0.44984
 051,0.00242120,0.00301130,-0.00097336,0.00081812,0.00044434,0.00005317
 ,-0.00021474,0.00000132,-0.00067841,0.00039737,0.00031430,0.00038614,0
 .01027414,0.00453469,0.01423554,-0.00569716,-0.00134884,-0.00050199,-0
 .09097207,-0.06776621,-0.16075293,0.08297313,0.00446524,-0.00573249,0.
 00159925,-0.00052694,-0.00056746,-0.00173938,0.00011744,0.00031288,-0.
 00009999,0.00004585,0.00032643,0.00045983,-0.01929926,-0.02768504,-0.0
 4925331,-0.00180903,0.00780541,0.00496227,-0.04380239,-0.10835169,-0.1
 2453418,0.06080909,0.13389196,-0.00011717,-0.00080011,0.00345021,-0.00
 051332,-0.00014987,0.00001186,0.00002230,0.00042029,0.00041299,-0.0004
 0445,0.00021144,-0.00020319,0.00045154,-0.01048754,-0.00218610,-0.0007
 7130,0.00571480,-0.00381785,-0.14689943,-0.16351451,-0.34991567,0.1482
 3183,0.16860551,0.35224775\\-0.00001439,0.00004136,0.00004631,-0.00000
 267,-0.00004662,0.00001930,-0.00002973,0.00001940,-0.00003910,0.000042
 32,0.00000528,-0.00002258,0.00003895,-0.00000440,-0.00002195,-0.000019
 23,0.00000017,0.00001017,-0.00002041,-0.00001922,0.00001208,0.00000517
 ,0.00000403,-0.00000424\\\@


 THERE ARE PEOPLE SO ADDICTED TO EXAGERATING THEY
 CAN'T TELL THE TRUTH WITHOUT LYING. -- FORTUNE COOKIE
 Job cpu time:       0 days  0 hours 10 minutes 52.5 seconds.
 Elapsed time:       0 days  0 hours  1 minutes 33.7 seconds.
 File lengths (MBytes):  RWF=     31 Int=      0 D2E=      0 Chk=      3 Scr=      1
 Normal termination of Gaussian 16 at Sat Aug  1 14:57:25 2020.
