 Entering Gaussian System, Link 0=/home/ubuntu/g16/g16
 Input=HOH_UB3LYP-aug-cc-pVDZ-Opt.gjf
 Output=HOH_UB3LYP-aug-cc-pVDZ-Opt.log
 Initial command:
 /home/ubuntu/g16/l1.exe "/home/ubuntu/g16/Gau-7129.inp" -scrdir="/home/ubuntu/g16/"
 Entering Link 1 = /home/ubuntu/g16/l1.exe PID=      7131.
  
 Copyright (c) 1988,1990,1992,1993,1995,1998,2003,2009,2016,
            Gaussian, Inc.  All Rights Reserved.
  
 This is part of the Gaussian(R) 16 program.  It is based on
 the Gaussian(R) 09 system (copyright 2009, Gaussian, Inc.),
 the Gaussian(R) 03 system (copyright 2003, Gaussian, Inc.),
 the Gaussian(R) 98 system (copyright 1998, Gaussian, Inc.),
 the Gaussian(R) 94 system (copyright 1995, Gaussian, Inc.),
 the Gaussian 92(TM) system (copyright 1992, Gaussian, Inc.),
 the Gaussian 90(TM) system (copyright 1990, Gaussian, Inc.),
 the Gaussian 88(TM) system (copyright 1988, Gaussian, Inc.),
 the Gaussian 86(TM) system (copyright 1986, Carnegie Mellon
 University), and the Gaussian 82(TM) system (copyright 1983,
 Carnegie Mellon University). Gaussian is a federally registered
 trademark of Gaussian, Inc.
  
 This software contains proprietary and confidential information,
 including trade secrets, belonging to Gaussian, Inc.
  
 This software is provided under written license and may be
 used, copied, transmitted, or stored only in accord with that
 written license.
  
 The following legend is applicable only to US Government
 contracts under FAR:
  
                    RESTRICTED RIGHTS LEGEND
  
 Use, reproduction and disclosure by the US Government is
 subject to restrictions as set forth in subparagraphs (a)
 and (c) of the Commercial Computer Software - Restricted
 Rights clause in FAR 52.227-19.
  
 Gaussian, Inc.
 340 Quinnipiac St., Bldg. 40, Wallingford CT 06492
  
  
 ---------------------------------------------------------------
 Warning -- This program may not be used in any manner that
 competes with the business of Gaussian, Inc. or will provide
 assistance to any competitor of Gaussian, Inc.  The licensee
 of this program is prohibited from giving any competitor of
 Gaussian, Inc. access to this program.  By using this program,
 the user acknowledges that Gaussian, Inc. is engaged in the
 business of creating and licensing software in the field of
 computational chemistry and represents and warrants to the
 licensee that it is not a competitor of Gaussian, Inc. and that
 it will not use this program in any manner prohibited above.
 ---------------------------------------------------------------
  

 Cite this work as:
 Gaussian 16, Revision A.03,
 M. J. Frisch, G. W. Trucks, H. B. Schlegel, G. E. Scuseria, 
 M. A. Robb, J. R. Cheeseman, G. Scalmani, V. Barone, 
 G. A. Petersson, H. Nakatsuji, X. Li, M. Caricato, A. V. Marenich, 
 J. Bloino, B. G. Janesko, R. Gomperts, B. Mennucci, H. P. Hratchian, 
 J. V. Ortiz, A. F. Izmaylov, J. L. Sonnenberg, D. Williams-Young, 
 F. Ding, F. Lipparini, F. Egidi, J. Goings, B. Peng, A. Petrone, 
 T. Henderson, D. Ranasinghe, V. G. Zakrzewski, J. Gao, N. Rega, 
 G. Zheng, W. Liang, M. Hada, M. Ehara, K. Toyota, R. Fukuda, 
 J. Hasegawa, M. Ishida, T. Nakajima, Y. Honda, O. Kitao, H. Nakai, 
 T. Vreven, K. Throssell, J. A. Montgomery, Jr., J. E. Peralta, 
 F. Ogliaro, M. J. Bearpark, J. J. Heyd, E. N. Brothers, K. N. Kudin, 
 V. N. Staroverov, T. A. Keith, R. Kobayashi, J. Normand, 
 K. Raghavachari, A. P. Rendell, J. C. Burant, S. S. Iyengar, 
 J. Tomasi, M. Cossi, J. M. Millam, M. Klene, C. Adamo, R. Cammi, 
 J. W. Ochterski, R. L. Martin, K. Morokuma, O. Farkas, 
 J. B. Foresman, and D. J. Fox, Gaussian, Inc., Wallingford CT, 2016.
 
 ******************************************
 Gaussian 16:  ES64L-G16RevA.03 25-Dec-2016
                 3-Aug-2020 
 ******************************************
 %chk=HOH_UB3LYP-aug-cc-pVDZ-Opt.chk
 %mem=500MW
 %nproc=7
 Will use up to    7 processors via shared memory.
 ----------------------------------------------------------------------
 #p opt=(maxcycles=777) freq ub3lyp/aug-cc-pVDZ pop=(Bonding,AllOrbital
 s,mk,no,nboread)
 ----------------------------------------------------------------------
 1/6=777,18=20,19=15,26=3,38=1/1,3;
 2/9=110,12=2,17=6,18=5,40=1/2;
 3/5=16,7=10,11=2,25=1,30=1,71=1,74=-5,116=2/1,2,3;
 4//1;
 5/5=2,38=5/2;
 6/7=2,8=2,9=2,10=2,15=8,20=1,22=-1,27=20,28=1,31=1,40=2,96=-1/1,2,7;
 7//1,2,3,16;
 1/6=777,18=20,19=15,26=3/3(2);
 2/9=110/2;
 99//99;
 2/9=110/2;
 3/5=16,7=10,11=2,25=1,30=1,71=1,74=-5,116=2/1,2,3;
 4/5=5,16=3,69=1/1;
 5/5=2,38=5/2;
 7//1,2,3,16;
 1/6=777,18=20,19=15,26=3/3(-5);
 2/9=110/2;
 6/7=2,8=2,9=2,10=2,15=8,19=2,20=1,22=-1,27=20,28=1,31=1,40=2,96=-1/1,2,7;
 99/9=1/99;
 Leave Link    1 at Mon Aug  3 15:43:45 2020, MaxMem=   524288000 cpu:               0.3 elap:               0.0
 (Enter /home/ubuntu/g16/l101.exe)
 ----------------------
 HOH_UB3LYP-aug-cc-pVDZ
 ----------------------
 Symbolic Z-matrix:
 Charge =  0 Multiplicity = 1
 O                     4.1825    1.3885    3.3204 
 H                     4.5393    1.7843    4.1322 
 H                     4.4904    0.4795    3.2976 
 
 ITRead=  0  0  0
 MicOpt= -1 -1 -1
 NAtoms=      3 NQM=        3 NQMF=       0 NMMI=      0 NMMIF=      0
                NMic=       0 NMicF=      0.
                    Isotopes and Nuclear Properties:
 (Nuclear quadrupole moments (NQMom) in fm**2, nuclear magnetic moments (NMagM)
  in nuclear magnetons)

  Atom         1           2           3
 IAtWgt=          16           1           1
 AtmWgt=  15.9949146   1.0078250   1.0078250
 NucSpn=           0           1           1
 AtZEff=  -0.0000000  -0.0000000  -0.0000000
 NQMom=    0.0000000   0.0000000   0.0000000
 NMagM=    0.0000000   2.7928460   2.7928460
 AtZNuc=   8.0000000   1.0000000   1.0000000
 Leave Link  101 at Mon Aug  3 15:43:46 2020, MaxMem=   524288000 cpu:               1.3 elap:               0.2
 (Enter /home/ubuntu/g16/l103.exe)

 GradGradGradGradGradGradGradGradGradGradGradGradGradGradGradGradGradGrad
 Berny optimization.
 Initialization pass.
                           ----------------------------
                           !    Initial Parameters    !
                           ! (Angstroms and Degrees)  !
 --------------------------                            --------------------------
 ! Name  Definition              Value          Derivative Info.                !
 --------------------------------------------------------------------------------
 ! R1    R(1,2)                  0.9711         estimate D2E/DX2                !
 ! R2    R(1,3)                  0.96           estimate D2E/DX2                !
 ! A1    A(2,1,3)              106.735          estimate D2E/DX2                !
 --------------------------------------------------------------------------------
 Trust Radius=3.00D-01 FncErr=1.00D-07 GrdErr=1.00D-06 EigMax=2.50D+02 EigMin=1.00D-04
 Number of steps in this run=    100 maximum allowed number of steps=    100.
 GradGradGradGradGradGradGradGradGradGradGradGradGradGradGradGradGradGrad

 Leave Link  103 at Mon Aug  3 15:43:46 2020, MaxMem=   524288000 cpu:               0.0 elap:               0.0
 (Enter /home/ubuntu/g16/l202.exe)
                          Input orientation:                          
 ---------------------------------------------------------------------
 Center     Atomic      Atomic             Coordinates (Angstroms)
 Number     Number       Type             X           Y           Z
 ---------------------------------------------------------------------
      1          8           0        4.182500    1.388500    3.320400
      2          1           0        4.539300    1.784300    4.132200
      3          1           0        4.490400    0.479500    3.297600
 ---------------------------------------------------------------------
                    Distance matrix (angstroms):
                    1          2          3
     1  O    0.000000
     2  H    0.971073   0.000000
     3  H    0.960002   1.549662   0.000000
 Stoichiometry    H2O
 Framework group  CS[SG(H2O)]
 Deg. of freedom     3
 Full point group                 CS      NOp   2
 Largest Abelian subgroup         CS      NOp   2
 Largest concise Abelian subgroup C1      NOp   1
                         Standard orientation:                         
 ---------------------------------------------------------------------
 Center     Atomic      Atomic             Coordinates (Angstroms)
 Number     Number       Type             X           Y           Z
 ---------------------------------------------------------------------
      1          8           0       -0.000000    0.115227    0.000000
      2          1           0        0.774775   -0.470184   -0.000000
      3          1           0       -0.774775   -0.451630    0.000000
 ---------------------------------------------------------------------
 Rotational constants (GHZ):         850.7908852         417.5689604         280.0970613
 Leave Link  202 at Mon Aug  3 15:43:46 2020, MaxMem=   524288000 cpu:               0.0 elap:               0.0
 (Enter /home/ubuntu/g16/l301.exe)
 Standard basis: Aug-CC-pVDZ (5D, 7F)
 Ernie: Thresh=  0.10000D-02 Tol=  0.10000D-05 Strict=F.
 Ernie:  2 primitive shells out of 39 were deleted.
 There are    32 symmetry adapted cartesian basis functions of A'  symmetry.
 There are    11 symmetry adapted cartesian basis functions of A"  symmetry.
 There are    30 symmetry adapted basis functions of A'  symmetry.
 There are    11 symmetry adapted basis functions of A"  symmetry.
    41 basis functions,    65 primitive gaussians,    43 cartesian basis functions
     5 alpha electrons        5 beta electrons
       nuclear repulsion energy         9.1108063774 Hartrees.
 IExCor=  402 DFT=T Ex+Corr=B3LYP ExCW=0 ScaHFX=  0.200000
 ScaDFX=  0.800000  0.720000  1.000000  0.810000 ScalE2=  1.000000  1.000000
 IRadAn=      5 IRanWt=     -1 IRanGd=            0 ICorTp=0 IEmpDi=  4
 NAtoms=    3 NActive=    3 NUniq=    3 SFac= 1.00D+00 NAtFMM=   60 NAOKFM=F Big=F
 Integral buffers will be    131072 words long.
 Raffenetti 2 integral format.
 Two-electron integral symmetry is turned on.
 Leave Link  301 at Mon Aug  3 15:43:46 2020, MaxMem=   524288000 cpu:               0.2 elap:               0.0
 (Enter /home/ubuntu/g16/l302.exe)
 NPDir=0 NMtPBC=     1 NCelOv=     1 NCel=       1 NClECP=     1 NCelD=      1
         NCelK=      1 NCelE2=     1 NClLst=     1 CellRange=     0.0.
 One-electron integrals computed using PRISM.
 One-electron integral symmetry used in STVInt
 NBasis=    41 RedAO= T EigKep=  2.84D-03  NBF=    30    11
 NBsUse=    41 1.00D-06 EigRej= -1.00D+00 NBFU=    30    11
 Precomputing XC quadrature grid using
 IXCGrd= 4 IRadAn=           5 IRanWt=          -1 IRanGd=           0 AccXCQ= 0.00D+00.
 Generated NRdTot=       0 NPtTot=           0 NUsed=           0 NTot=          32
 NSgBfM=    43    43    43    43    43 MxSgAt=     3 MxSgA2=     3.
 Leave Link  302 at Mon Aug  3 15:43:46 2020, MaxMem=   524288000 cpu:               1.0 elap:               0.2
 (Enter /home/ubuntu/g16/l303.exe)
 DipDrv:  MaxL=1.
 Leave Link  303 at Mon Aug  3 15:43:46 2020, MaxMem=   524288000 cpu:               0.2 elap:               0.0
 (Enter /home/ubuntu/g16/l401.exe)
 ExpMin= 2.97D-02 ExpMax= 1.17D+04 ExpMxC= 4.01D+02 IAcc=3 IRadAn=         5 AccDes= 0.00D+00
 Harris functional with IExCor=  402 and IRadAn=       5 diagonalized for initial guess.
 HarFok:  IExCor=  402 AccDes= 0.00D+00 IRadAn=         5 IDoV= 1 UseB2=F ITyADJ=14
 ICtDFT=  3500011 ScaDFX=  1.000000  1.000000  1.000000  1.000000
 FoFCou: FMM=F IPFlag=           0 FMFlag=      100000 FMFlg1=           0
         NFxFlg=           0 DoJE=T BraDBF=F KetDBF=T FulRan=T
         wScrn=  0.000000 ICntrl=       500 IOpCl=  0 I1Cent=   200000004 NGrid=           0
         NMat0=    1 NMatS0=      1 NMatT0=    0 NMatD0=    1 NMtDS0=    0 NMtDT0=    0
 Petite list used in FoFCou.
 Harris En= -76.4716930543482    
 JPrj=0 DoOrth=F DoCkMO=F.
 Initial guess orbital symmetries:
 Alpha Orbitals:
       Occupied  (A') (A') (A') (A') (A")
       Virtual   (A') (A') (A') (A") (A') (A') (A') (A') (A") (A')
                 (A") (A') (A') (A') (A') (A') (A") (A') (A") (A')
                 (A") (A') (A') (A') (A") (A") (A') (A') (A') (A')
                 (A') (A") (A') (A") (A') (A')
 Beta  Orbitals:
       Occupied  (A') (A') (A') (A') (A")
       Virtual   (A') (A') (A') (A") (A') (A') (A') (A') (A") (A')
                 (A") (A') (A') (A') (A') (A') (A") (A') (A") (A')
                 (A") (A') (A') (A') (A") (A") (A') (A') (A') (A')
                 (A') (A") (A') (A") (A') (A')
 The electronic state of the initial guess is 1-A'.
 Initial guess <Sx>= 0.0000 <Sy>= 0.0000 <Sz>= 0.0000 <S**2>= 0.0000 S= 0.0000
 Leave Link  401 at Mon Aug  3 15:43:46 2020, MaxMem=   524288000 cpu:               1.7 elap:               0.2
 (Enter /home/ubuntu/g16/l502.exe)
 Keep R1 and R2 ints in memory in symmetry-blocked form, NReq=6436674.
 FoFCou: FMM=F IPFlag=           0 FMFlag=           0 FMFlg1=           0
         NFxFlg=           0 DoJE=F BraDBF=F KetDBF=F FulRan=T
         wScrn=  0.000000 ICntrl=       600 IOpCl=  0 I1Cent=           0 NGrid=           0
         NMat0=    1 NMatS0=    861 NMatT0=    0 NMatD0=    1 NMtDS0=    0 NMtDT0=    0
 Petite list used in FoFCou.
 UHF open shell SCF:
 Using DIIS extrapolation, IDIIS=  1040.
 NGot=   524288000 LenX=   523889346 LenY=   523887056
 Requested convergence on RMS density matrix=1.00D-08 within 128 cycles.
 Requested convergence on MAX density matrix=1.00D-06.
 Requested convergence on             energy=1.00D-06.
 No special actions if energy rises.

 Cycle   1  Pass 1  IDiag  1:
 E= -76.3699570148797    
 DIIS: error= 5.60D-02 at cycle   1 NSaved=   1.
 NSaved= 1 IEnMin= 1 EnMin= -76.3699570148797     IErMin= 1 ErrMin= 5.60D-02
 ErrMax= 5.60D-02  0.00D+00 EMaxC= 1.00D-01 BMatC= 3.88D-01 BMatP= 3.88D-01
 IDIUse=3 WtCom= 4.40D-01 WtEn= 5.60D-01
 Coeff-Com:  0.100D+01
 Coeff-En:   0.100D+01
 Coeff:      0.100D+01
 Gap=     0.139 Goal=   None    Shift=    0.000
 Gap=     0.139 Goal=   None    Shift=    0.000
 GapD=    0.139 DampG=1.000 DampE=0.500 DampFc=0.5000 IDamp=-1.
 Damping current iteration by 5.00D-01
 RMSDP=1.13D-02 MaxDP=1.81D-01              OVMax= 2.33D-01

 Cycle   2  Pass 1  IDiag  1:
 E= -76.3795627234243     Delta-E=       -0.009605708545 Rises=F Damp=T
 DIIS: error= 2.51D-02 at cycle   2 NSaved=   2.
 NSaved= 2 IEnMin= 2 EnMin= -76.3795627234243     IErMin= 2 ErrMin= 2.51D-02
 ErrMax= 2.51D-02  0.00D+00 EMaxC= 1.00D-01 BMatC= 5.87D-02 BMatP= 3.88D-01
 IDIUse=3 WtCom= 7.49D-01 WtEn= 2.51D-01
 Coeff-Com:  0.274D+00 0.726D+00
 Coeff-En:   0.446D+00 0.554D+00
 Coeff:      0.317D+00 0.683D+00
 Gap=     0.282 Goal=   None    Shift=    0.000
 Gap=     0.282 Goal=   None    Shift=    0.000
 RMSDP=1.55D-03 MaxDP=2.10D-02 DE=-9.61D-03 OVMax= 1.52D-01

 Cycle   3  Pass 1  IDiag  1:
 E= -76.4442222590570     Delta-E=       -0.064659535633 Rises=F Damp=F
 DIIS: error= 3.56D-03 at cycle   3 NSaved=   3.
 NSaved= 3 IEnMin= 3 EnMin= -76.4442222590570     IErMin= 3 ErrMin= 3.56D-03
 ErrMax= 3.56D-03  0.00D+00 EMaxC= 1.00D-01 BMatC= 1.58D-03 BMatP= 5.87D-02
 IDIUse=3 WtCom= 9.64D-01 WtEn= 3.56D-02
 Coeff-Com:  0.488D-01-0.335D-01 0.985D+00
 Coeff-En:   0.000D+00 0.000D+00 0.100D+01
 Coeff:      0.471D-01-0.323D-01 0.985D+00
 Gap=     0.297 Goal=   None    Shift=    0.000
 Gap=     0.297 Goal=   None    Shift=    0.000
 RMSDP=2.41D-04 MaxDP=4.02D-03 DE=-6.47D-02 OVMax= 4.23D-03

 Cycle   4  Pass 1  IDiag  1:
 E= -76.4444845409169     Delta-E=       -0.000262281860 Rises=F Damp=F
 DIIS: error= 3.13D-04 at cycle   4 NSaved=   4.
 NSaved= 4 IEnMin= 4 EnMin= -76.4444845409169     IErMin= 4 ErrMin= 3.13D-04
 ErrMax= 3.13D-04  0.00D+00 EMaxC= 1.00D-01 BMatC= 1.75D-05 BMatP= 1.58D-03
 IDIUse=3 WtCom= 9.97D-01 WtEn= 3.13D-03
 Coeff-Com:  0.881D-02-0.218D-01 0.210D+00 0.802D+00
 Coeff-En:   0.000D+00 0.000D+00 0.000D+00 0.100D+01
 Coeff:      0.879D-02-0.217D-01 0.210D+00 0.803D+00
 Gap=     0.298 Goal=   None    Shift=    0.000
 Gap=     0.298 Goal=   None    Shift=    0.000
 RMSDP=2.19D-05 MaxDP=2.86D-04 DE=-2.62D-04 OVMax= 4.83D-04

 Cycle   5  Pass 1  IDiag  1:
 E= -76.4444872868845     Delta-E=       -0.000002745968 Rises=F Damp=F
 DIIS: error= 1.55D-04 at cycle   5 NSaved=   5.
 NSaved= 5 IEnMin= 5 EnMin= -76.4444872868845     IErMin= 5 ErrMin= 1.55D-04
 ErrMax= 1.55D-04  0.00D+00 EMaxC= 1.00D-01 BMatC= 2.39D-06 BMatP= 1.75D-05
 IDIUse=3 WtCom= 9.98D-01 WtEn= 1.55D-03
 Coeff-Com:  0.230D-02-0.372D-02 0.164D-01 0.108D+00 0.877D+00
 Coeff-En:   0.000D+00 0.000D+00 0.000D+00 0.000D+00 0.100D+01
 Coeff:      0.230D-02-0.371D-02 0.164D-01 0.108D+00 0.877D+00
 Gap=     0.298 Goal=   None    Shift=    0.000
 Gap=     0.298 Goal=   None    Shift=    0.000
 RMSDP=1.14D-05 MaxDP=1.45D-04 DE=-2.75D-06 OVMax= 2.00D-04

 Cycle   6  Pass 1  IDiag  1:
 E= -76.4444877583483     Delta-E=       -0.000000471464 Rises=F Damp=F
 DIIS: error= 1.42D-05 at cycle   6 NSaved=   6.
 NSaved= 6 IEnMin= 6 EnMin= -76.4444877583483     IErMin= 6 ErrMin= 1.42D-05
 ErrMax= 1.42D-05  0.00D+00 EMaxC= 1.00D-01 BMatC= 1.92D-08 BMatP= 2.39D-06
 IDIUse=1 WtCom= 1.00D+00 WtEn= 0.00D+00
 Coeff-Com:  0.322D-04-0.637D-04 0.287D-03-0.908D-02-0.628D-01 0.107D+01
 Coeff:      0.322D-04-0.637D-04 0.287D-03-0.908D-02-0.628D-01 0.107D+01
 Gap=     0.298 Goal=   None    Shift=    0.000
 Gap=     0.298 Goal=   None    Shift=    0.000
 RMSDP=1.19D-06 MaxDP=1.59D-05 DE=-4.71D-07 OVMax= 2.12D-05

 Cycle   7  Pass 1  IDiag  1:
 E= -76.4444877621287     Delta-E=       -0.000000003780 Rises=F Damp=F
 DIIS: error= 3.39D-07 at cycle   7 NSaved=   7.
 NSaved= 7 IEnMin= 7 EnMin= -76.4444877621287     IErMin= 7 ErrMin= 3.39D-07
 ErrMax= 3.39D-07  0.00D+00 EMaxC= 1.00D-01 BMatC= 2.08D-11 BMatP= 1.92D-08
 IDIUse=1 WtCom= 1.00D+00 WtEn= 0.00D+00
 Coeff-Com: -0.410D-05 0.321D-05-0.123D-04-0.284D-02-0.210D-01 0.259D+00
 Coeff-Com:  0.765D+00
 Coeff:     -0.410D-05 0.321D-05-0.123D-04-0.284D-02-0.210D-01 0.259D+00
 Coeff:      0.765D+00
 Gap=     0.298 Goal=   None    Shift=    0.000
 Gap=     0.298 Goal=   None    Shift=    0.000
 RMSDP=4.76D-08 MaxDP=4.94D-07 DE=-3.78D-09 OVMax= 7.95D-07

 Cycle   8  Pass 1  IDiag  1:
 E= -76.4444877621332     Delta-E=       -0.000000000005 Rises=F Damp=F
 DIIS: error= 4.44D-08 at cycle   8 NSaved=   8.
 NSaved= 8 IEnMin= 8 EnMin= -76.4444877621332     IErMin= 8 ErrMin= 4.44D-08
 ErrMax= 4.44D-08  0.00D+00 EMaxC= 1.00D-01 BMatC= 3.49D-13 BMatP= 2.08D-11
 IDIUse=1 WtCom= 1.00D+00 WtEn= 0.00D+00
 Coeff-Com: -0.260D-05 0.432D-05-0.209D-04 0.102D-03 0.449D-03-0.238D-01
 Coeff-Com:  0.113D+00 0.911D+00
 Coeff:     -0.260D-05 0.432D-05-0.209D-04 0.102D-03 0.449D-03-0.238D-01
 Coeff:      0.113D+00 0.911D+00
 Gap=     0.298 Goal=   None    Shift=    0.000
 Gap=     0.298 Goal=   None    Shift=    0.000
 RMSDP=7.90D-09 MaxDP=6.47D-08 DE=-4.55D-12 OVMax= 1.90D-07

 SCF Done:  E(UB3LYP) =  -76.4444877621     A.U. after    8 cycles
            NFock=  8  Conv=0.79D-08     -V/T= 2.0064
 <Sx>= 0.0000 <Sy>= 0.0000 <Sz>= 0.0000 <S**2>=-0.0000 S=-0.0000
 <L.S>= 0.000000000000E+00
 KE= 7.595718759232D+01 PE=-1.987708817717D+02 EE= 3.725840003985D+01
 Annihilation of the first spin contaminant:
 S**2 before annihilation    -0.0000,   after     0.0000
 Leave Link  502 at Mon Aug  3 15:43:47 2020, MaxMem=   524288000 cpu:               3.8 elap:               0.6
 (Enter /home/ubuntu/g16/l601.exe)
 Copying SCF densities to generalized density rwf, IOpCl= 1 IROHF=0.

 **********************************************************************

            Population analysis using the SCF density.

 **********************************************************************

 Orbital symmetries:
 Alpha Orbitals:
       Occupied  (A') (A') (A') (A') (A")
       Virtual   (A') (A') (A') (A") (A') (A') (A') (A') (A") (A')
                 (A") (A') (A') (A') (A') (A') (A") (A') (A") (A')
                 (A") (A') (A') (A') (A") (A") (A') (A') (A') (A')
                 (A') (A") (A') (A") (A') (A')
 Beta  Orbitals:
       Occupied  (A') (A') (A') (A') (A")
       Virtual   (A') (A') (A') (A") (A') (A') (A') (A') (A") (A')
                 (A") (A') (A') (A') (A') (A') (A") (A') (A") (A')
                 (A") (A') (A') (A') (A") (A") (A') (A') (A') (A')
                 (A') (A") (A') (A") (A') (A')
 The electronic state is 1-A'.
     Natural Orbital Coefficients:
                           1         2         3         4         5
     Eigenvalues --     2.00000   2.00000   2.00000   2.00000   2.00000
   1 1   O  1S          0.90311   0.13604  -0.11518   0.40719  -0.17014
   2        2S         -0.22901  -0.00876   0.21287   0.36315  -0.01672
   3        3S         -0.21346   0.03619   0.24677   0.31446   0.16097
   4        4S         -0.04355   0.01896   0.06430   0.06361   0.07672
   5        5PX         0.13533  -0.11888   0.43757  -0.17762  -0.09697
   6        5PY         0.04185   0.15055   0.17131   0.06708   0.51208
   7        5PZ        -0.06777   0.58621   0.09978  -0.09572  -0.18765
   8        6PX         0.03529  -0.03267   0.12039  -0.04633  -0.02716
   9        6PY        -0.01239   0.07324   0.11471   0.08587   0.25046
  10        6PZ        -0.04448   0.38477   0.06549  -0.06283  -0.12317
  11        7PX         0.00250  -0.00225   0.00858  -0.00318  -0.00175
  12        7PY         0.00682   0.01393   0.01418   0.00466   0.04620
  13        7PZ        -0.00965   0.08344   0.01420  -0.01363  -0.02671
  14        8D 0        0.00415   0.00322   0.00086  -0.00361   0.01085
  15        8D+1        0.00003  -0.00025  -0.00004   0.00004   0.00008
  16        8D-1        0.00151  -0.01306  -0.00222   0.00213   0.00418
  17        8D+2       -0.00095   0.00284   0.00429   0.00406   0.00942
  18        8D-2       -0.00676   0.00585  -0.02176   0.00886   0.00464
  19        9D 0       -0.01004  -0.00355   0.00416   0.01222  -0.01149
  20        9D+1        0.00000  -0.00003  -0.00001   0.00000   0.00001
  21        9D-1        0.00188  -0.01623  -0.00276   0.00265   0.00519
  22        9D+2        0.00295   0.00577   0.00652   0.00022   0.02032
  23        9D-2        0.01222  -0.01049   0.03794  -0.01610  -0.00881
  24 2   H  1S         -0.01261  -0.16029   0.30090  -0.03382  -0.31895
  25        2S          0.05774  -0.04687   0.07888  -0.07896  -0.08504
  26        3S          0.00256  -0.00220  -0.00114  -0.00385  -0.00642
  27        4PX         0.01363   0.01552  -0.02119  -0.01060   0.03769
  28        4PY        -0.00353  -0.00841   0.03499   0.00446  -0.00865
  29        4PZ        -0.00289   0.02501   0.00426  -0.00408  -0.00800
  30        5PX        -0.00983   0.00459  -0.01350   0.00936   0.00594
  31        5PY         0.00860   0.00349   0.01605  -0.00262   0.01767
  32        5PZ        -0.00308   0.02663   0.00453  -0.00435  -0.00852
  33 3   H  1S         -0.20664   0.00944  -0.31617   0.22188  -0.17719
  34        2S         -0.01472   0.01726  -0.15214   0.01727  -0.03047
  35        3S          0.00094  -0.00088  -0.00609  -0.00170  -0.00545
  36        4PX        -0.02552  -0.00541  -0.01537   0.02620  -0.02922
  37        4PY        -0.01953   0.00615  -0.01685   0.02568   0.00420
  38        4PZ        -0.00294   0.02542   0.00433  -0.00415  -0.00814
  39        5PX        -0.00074   0.00457  -0.01932   0.00480   0.00183
  40        5PY         0.00179   0.00919  -0.00462   0.00634   0.02236
  41        5PZ        -0.00310   0.02685   0.00457  -0.00439  -0.00860
                           6         7         8         9        10
     Eigenvalues --     0.00000   0.00000   0.00000   0.00000   0.00000
   1 1   O  1S         -0.00150   0.00631   0.02346  -0.00312   0.00198
   2        2S          0.01106  -0.10023  -0.11188  -0.04542   0.02897
   3        3S         -0.02401  -0.05232  -0.08870   0.00286  -0.00199
   4        4S         -0.13063   0.02490   0.04487  -0.05855   0.03145
   5        5PX         0.01062   0.00563   0.02900   0.01051  -0.00652
   6        5PY         0.09639  -0.02610   0.17258   0.17515  -0.10356
   7        5PZ        -0.36734   0.40048  -0.12110  -0.26281  -0.35035
   8        6PX         0.06280   0.03778  -0.12400  -0.07200   0.04261
   9        6PY         0.01233   0.04182   0.02185  -0.21983   0.13704
  10        6PZ         1.24391   0.09490   0.04262   0.62449   1.09808
  11        7PX        -0.06968  -0.02576  -0.00869   0.00681  -0.00420
  12        7PY        -0.09610  -0.03030  -0.10665   0.13431  -0.08715
  13        7PZ        -0.97611   0.00597  -0.03497   1.05302   1.28319
  14        8D 0       -0.00908  -0.06434  -0.07906   0.16641  -0.10074
  15        8D+1       -0.08371   0.39094   0.67584   0.17398  -0.07539
  16        8D-1       -0.04079  -0.01375  -0.43319   0.59144   0.03335
  17        8D+2        0.12190  -0.09305   0.03370   0.05404  -0.02843
  18        8D-2        0.09434  -0.01734   0.20102   0.10401  -0.05488
  19        9D 0       -0.03410   0.03901   0.12822  -0.11090   0.07066
  20        9D+1        0.17375  -0.67789  -0.07773  -0.16450   0.04013
  21        9D-1       -0.24419   0.20975   0.18219  -0.20598  -1.03915
  22        9D+2        0.10458  -0.01212  -0.06565  -0.09127   0.06083
  23        9D-2       -0.05615  -0.02112   0.07324   0.05242  -0.03090
  24 2   H  1S          0.00702  -0.02960   0.10826   0.07976  -0.04470
  25        2S          0.11305   0.04116   0.19063  -0.07359   0.05100
  26        3S         -0.06242  -0.04327   0.03881   0.03682  -0.02275
  27        4PX         0.09174  -0.10219   0.08584   0.09368  -0.05118
  28        4PY        -0.00717   0.01034  -0.21434  -0.01432   0.00484
  29        4PZ        -0.57281  -0.00598  -0.11842   0.06250  -0.14722
  30        5PX        -0.05365  -0.00394  -0.09786  -0.27489   0.16921
  31        5PY        -0.05626   0.05628  -0.06567  -0.05453   0.02887
  32        5PZ        -0.03738   0.25456  -0.21103  -0.89875  -1.02048
  33 3   H  1S          0.06204   0.01391  -0.20158  -0.07171   0.04200
  34        2S          0.04845   0.06843   0.11009  -0.16918   0.10595
  35        3S         -0.14716  -0.03624  -0.00316   0.00284  -0.00546
  36        4PX        -0.01875   0.06007   0.08131   0.00123   0.00026
  37        4PY         0.12462  -0.00251   0.00496   0.07818  -0.04237
  38        4PZ        -0.51888   0.10492   0.38801  -0.17691  -0.01332
  39        5PX         0.09181  -0.00873   0.11270   0.25848  -0.15564
  40        5PY        -0.01240   0.08073   0.02996  -0.02162   0.01204
  41        5PZ         0.22504  -1.13990   0.17776  -0.52726  -1.33783
                          11        12        13        14        15
     Eigenvalues --     0.00000   0.00000   0.00000   0.00000   0.00000
   1 1   O  1S         -0.05542  -0.05456   0.02012  -0.03300   0.01139
   2        2S          0.10417   0.68796  -0.20842   0.56377  -0.11951
   3        3S          0.28220   0.29026  -0.03854   0.20474   0.61709
   4        4S         -0.32415  -0.32231  -0.45864   0.40988   1.23333
   5        5PX        -0.03207   0.01062  -0.06414   0.11042   0.29391
   6        5PY        -0.11672  -0.03882   0.13604  -0.10312   0.02681
   7        5PZ         0.09244   0.04268  -0.09317  -0.04256   0.05886
   8        6PX        -0.14615  -0.09981   0.68033  -0.01238  -0.22895
   9        6PY         0.31237   0.16123   0.13564  -0.24017  -0.59909
  10        6PZ        -0.08837  -0.09405   0.06909  -0.04829  -0.02116
  11        7PX         0.16595   0.11094  -0.12480   0.23337  -0.01306
  12        7PY         0.20544   0.22047   0.08870  -0.01697   0.54889
  13        7PZ         0.14124  -0.05460   0.05220   0.25705   0.01684
  14        8D 0        0.19749   0.04911   0.04226  -0.52461   0.23084
  15        8D+1        0.19249   0.14012  -0.06581   0.04677   0.09318
  16        8D-1       -0.33564   0.07129  -0.18855  -0.08296  -0.08146
  17        8D+2       -0.08936   0.41006   0.37343  -0.05236   0.39135
  18        8D-2       -0.06377  -0.12982  -0.22955  -0.16444  -0.18150
  19        9D 0       -0.16927  -0.09693  -0.07135   0.25346  -0.34774
  20        9D+1        0.15331  -0.39689   0.24933   0.43518  -0.01442
  21        9D-1        0.01119  -0.02443   0.15467   0.38299  -0.03977
  22        9D+2        0.03044  -0.14610  -0.22170   0.17274   0.45583
  23        9D-2        0.21207   0.06704  -0.66667   0.01587   0.19566
  24 2   H  1S          0.29636   0.12377  -0.60328  -0.02862  -0.11384
  25        2S         -0.24956  -0.18418   0.41822  -0.72879  -0.78798
  26        3S         -0.18701   0.07214  -0.17565   0.00677  -0.30204
  27        4PX        -0.23808   0.25540  -0.29575   0.45906   0.38394
  28        4PY         0.02386  -0.13204  -0.05346  -0.14858  -0.43753
  29        4PZ        -0.39610   0.53702  -0.21244  -0.54315  -0.12665
  30        5PX         0.25885   0.08797  -0.34900   0.05583   0.19084
  31        5PY        -0.17237  -0.35362   0.04918  -0.19569  -0.14071
  32        5PZ         0.00205  -0.14932   0.07546   0.20338   0.05174
  33 3   H  1S          0.07274   0.06444   0.53400  -0.03584  -0.26798
  34        2S         -0.02922  -0.16619   0.49917  -0.22099  -0.42617
  35        3S         -0.15516   0.15300  -0.19718   0.21975   0.09854
  36        4PX         0.35369  -0.27327  -0.11219  -0.34359   0.26324
  37        4PY         0.04661  -0.20342  -0.29946  -0.04760  -0.42590
  38        4PZ         0.05547   0.03468   0.17682   0.43039  -0.00246
  39        5PX        -0.04771  -0.16454   0.01233  -0.12127   0.01154
  40        5PY        -0.20097  -0.50786   0.01621  -0.09092   0.03755
  41        5PZ         0.06801  -0.10892  -0.05130  -0.17499  -0.05372
                          16        17        18        19        20
     Eigenvalues --     0.00000   0.00000   0.00000   0.00000   0.00000
   1 1   O  1S         -0.00262  -0.00177   0.03092   0.02454   0.07302
   2        2S          0.09970   0.17339   0.10975   0.29772   0.27559
   3        3S         -0.67436  -0.54446  -0.83184  -0.84101  -1.96987
   4        4S         -0.62200  -0.04515  -1.43356   1.16366  -0.42119
   5        5PX         0.41638  -0.21466   0.19747  -0.33948   0.04589
   6        5PY         0.24092  -0.00231  -0.25755  -0.09918  -0.26468
   7        5PZ         0.02516  -0.09692   0.01667   0.04063   0.01763
   8        6PX         1.67720  -0.62182   0.23643   0.45594  -0.42351
   9        6PY        -0.00234   0.28228   1.00552   0.85694   1.83525
  10        6PZ        -0.01019   0.00837  -0.04044  -0.01357   0.00596
  11        7PX         0.21224  -0.12110  -0.66568  -0.93274  -0.89724
  12        7PY         0.08965  -0.18034   0.27112   0.05163  -0.30673
  13        7PZ        -0.00927  -0.10177   0.00123   0.04422   0.02658
  14        8D 0        0.25209  -0.10105   0.34000   0.15181   0.19591
  15        8D+1        0.10801  -0.13049  -0.14182   0.00622   0.02466
  16        8D-1       -0.04730   0.28020   0.19354  -0.04355  -0.06520
  17        8D+2       -0.31761  -0.00878   0.22037  -0.06335  -0.15210
  18        8D-2       -0.47379  -0.24415  -0.10922   0.38860  -0.25854
  19        9D 0       -0.01195  -0.03941   0.24099   0.22602   0.32717
  20        9D+1       -0.09989   0.17528   0.28101   0.00639  -0.01419
  21        9D-1       -0.04571  -0.04725  -0.05322   0.01608   0.02290
  22        9D+2        0.17035   0.11893  -0.42967   0.69265   0.42669
  23        9D-2       -1.05155   0.50127   0.28070  -0.32587   0.35113
  24 2   H  1S         -1.06169   0.89178   0.07238   0.69875   1.25097
  25        2S         -0.25731  -0.31899   2.21577  -1.77640   2.52247
  26        3S          0.08764  -0.05611  -0.64362   1.41484   1.41029
  27        4PX         0.47701   0.16228  -0.02657  -0.66675  -0.19867
  28        4PY        -0.28498   0.00145  -0.29449  -0.50593   0.15169
  29        4PZ         0.05348   0.05678  -0.28617  -0.05880   0.00735
  30        5PX        -0.61097   0.13580  -0.02137   0.81910  -1.70959
  31        5PY         0.25512   0.10654   0.18153   0.42936  -0.23025
  32        5PZ        -0.08398   0.05809   0.22958   0.04009  -0.00038
  33 3   H  1S          1.53556  -1.11918   0.78080   0.32835   1.11989
  34        2S          0.56198   1.18029  -0.10105   0.84691  -2.47298
  35        3S          0.38394  -0.39561   0.65289  -1.67611  -0.99538
  36        4PX         0.86052   0.56215   0.24322   0.01147   0.57769
  37        4PY         0.78307  -0.20870   0.48841   0.00390  -0.28280
  38        4PZ        -0.08284   0.35401   0.28517  -0.09977  -0.11794
  39        5PX        -0.35334   0.22152  -0.12545   0.94088  -0.72969
  40        5PY        -0.18792   0.03848  -0.32307  -1.08635   0.25851
  41        5PZ         0.07866  -0.08561  -0.18664  -0.01821   0.01174
                          21        22        23        24        25
     Eigenvalues --     0.00000   0.00000   0.00000  -0.00000  -0.00000
   1 1   O  1S          0.02348  -0.03475   0.05794  -0.02919  -0.00045
   2        2S          0.29952  -0.34902   0.74887  -0.48691  -0.00683
   3        3S         -1.69280   1.18852  -3.06216   1.67020  -0.12168
   4        4S         -6.09215  -3.44067  -3.34036   0.07917  -2.24921
   5        5PX        -0.07299   0.00791  -0.06546  -0.26506   0.13175
   6        5PY        -0.20578  -0.11319   0.01547  -0.15706  -0.07660
   7        5PZ        -0.02164   0.02417   0.02209   0.00097  -0.01808
   8        6PX         0.75435  -0.64009   0.75551   4.30152  -2.01922
   9        6PY         1.52596  -0.30362   0.96005  -0.49668   0.08120
  10        6PZ        -0.00326  -0.00573  -0.00008  -0.00296   0.00821
  11        7PX         1.19103  -2.80483   1.87576   1.67683  -2.36549
  12        7PY         1.93292   1.50609   0.61721  -0.49488  -0.49931
  13        7PZ        -0.02813   0.04172   0.02477   0.00222  -0.00942
  14        8D 0       -0.11359  -0.15627   0.12961  -0.07100  -0.09420
  15        8D+1       -0.07892   0.09268   0.25291   0.00718   0.06436
  16        8D-1        0.06870  -0.07277  -0.04841  -0.00024  -0.00134
  17        8D+2       -0.41538  -0.10333  -0.03047   0.11306   0.10641
  18        8D-2        0.07266  -0.19529   0.03965  -0.40061   0.13561
  19        9D 0        0.18202   0.02040   0.16379  -0.18920  -0.20900
  20        9D+1       -0.10194   0.10086   0.33893  -0.00559   0.07660
  21        9D-1       -0.02138   0.03632   0.01915   0.00094   0.01372
  22        9D+2        1.32546   0.06559  -0.17937  -0.11496   0.14771
  23        9D-2       -0.30555   0.42209  -0.15869  -0.59584   0.26800
  24 2   H  1S         -0.44722  -0.76019   0.49841  -1.68526   0.28892
  25        2S          1.77715   5.54758  -0.87625  -9.39187   4.38453
  26        3S         -0.97154   2.81514  -1.38115  -0.36052   1.06453
  27        4PX        -0.50325   0.29076  -0.19199   0.65359  -0.20147
  28        4PY        -0.27799   0.08235   0.24489  -0.67106  -0.21584
  29        4PZ         0.01638   0.05791   0.17869   0.00263   0.06770
  30        5PX        -0.32396  -0.88817   0.30649   3.51753  -0.69255
  31        5PY        -0.67828   0.44522  -0.24785  -1.49201   2.12638
  32        5PZ        -0.06609   0.04493   0.13316  -0.00724   0.01233
  33 3   H  1S          0.23747  -0.85814   0.50909   0.94254  -0.56796
  34        2S          5.43064  -1.61773   5.63151   8.03418  -3.32902
  35        3S          1.97689  -2.38084   1.78162   0.79609   0.07640
  36        4PX         0.40846  -0.21119   0.28994   0.06794  -0.29356
  37        4PY        -0.32159   0.07724   0.23629   0.24552  -0.54972
  38        4PZ         0.09626  -0.16416  -0.26696   0.00097  -0.00616
  39        5PX         1.57907  -0.71570   1.47427   3.35544   0.19535
  40        5PY         0.35056  -1.02430   1.07871   1.73510  -0.56286
  41        5PZ         0.05718  -0.04001  -0.12854   0.00603  -0.02678
                          26        27        28        29        30
     Eigenvalues --    -0.00000  -0.00000  -0.00000  -0.00000  -0.00000
   1 1   O  1S         -0.10391   0.02109  -0.03800   0.03102  -0.00251
   2        2S         -1.45898   0.61300   0.48188  -0.23015  -0.20478
   3        3S          5.87890  -1.62178  -0.20165  -0.45272   0.51206
   4        4S          8.17832   3.01053   2.71383  -1.73272  -0.28206
   5        5PX        -0.04104   0.04991  -0.07213  -0.00144  -0.44190
   6        5PY        -0.14862   0.17276   0.14472   0.55758   0.09975
   7        5PZ        -0.01080  -0.01766  -0.05650  -0.06243   0.09570
   8        6PX        -0.03045   0.26644   0.30335  -0.08880  -0.90876
   9        6PY        -1.30872   0.09266  -0.70483   0.47218  -0.21087
  10        6PZ        -0.00920   0.01702   0.00868   0.00251  -0.00809
  11        7PX         0.30565  -1.58762  -0.49020  -0.57095  -0.05709
  12        7PY        -1.22230  -0.30382  -0.85596   0.79299   0.17410
  13        7PZ        -0.01551   0.02148  -0.08069  -0.11967   0.12918
  14        8D 0       -0.26535   0.05354   0.04001  -0.11220   0.03706
  15        8D+1        0.07758   0.01243   0.06870   0.05097  -0.00726
  16        8D-1        0.06599  -0.10075   0.16082   0.26152  -0.32642
  17        8D+2       -0.12724  -0.27889  -0.06227   0.01805  -0.01347
  18        8D-2        0.08357  -0.16466  -0.33446   0.06915  -0.22503
  19        9D 0       -0.18547  -0.04127  -0.51764   0.79882   0.16630
  20        9D+1        0.14815  -0.11111   0.12461   0.16232  -0.26978
  21        9D-1       -0.01223   0.06262  -0.05576  -0.11311   0.08416
  22        9D+2        0.77729   0.00423   0.51208  -0.02258  -0.03413
  23        9D-2       -0.23493  -0.07792   0.51246   0.02946   1.11582
  24 2   H  1S         -0.94162  -0.00432  -0.59675   1.06402   1.27501
  25        2S         -4.70852  -1.48104   0.20364   0.48843   0.31333
  26        3S         -1.62560  -0.36342   0.12888   0.49022  -0.91115
  27        4PX         0.34778  -0.19430  -0.27593  -0.77357  -0.25500
  28        4PY        -0.37751   0.40841  -0.68237   0.15838   0.19224
  29        4PZ         0.13892   0.06434   0.11789   0.07029  -0.02280
  30        5PX         0.90645   1.58946  -0.60128   0.85116  -0.07405
  31        5PY        -1.38415  -0.08643  -0.00550  -0.37396  -0.23969
  32        5PZ         0.03512  -0.09089  -0.00734   0.02155  -0.08739
  33 3   H  1S         -0.63897   0.81658  -0.37701   0.89113  -1.15983
  34        2S         -5.70863  -0.38115  -2.59563   0.76926  -0.59852
  35        3S          0.17515  -0.63769  -0.72422  -0.05713   1.23795
  36        4PX        -0.27788   0.05374  -0.08192   0.40312  -0.43813
  37        4PY        -0.52510   0.32501  -0.03311   0.14698   0.04108
  38        4PZ        -0.05015  -0.06198   0.14201   0.26136  -0.41450
  39        5PX        -1.40207   1.62598  -0.65844   0.12841  -0.16411
  40        5PY        -1.39535  -0.50039   0.51255  -0.07595   0.03666
  41        5PZ        -0.04372   0.07196  -0.01200  -0.03518   0.11106
                          31        32        33        34        35
     Eigenvalues --    -0.00000  -0.00000  -0.00000  -0.00000  -0.00000
   1 1   O  1S          0.01574   0.06012  -0.01456  -0.01775  -0.03151
   2        2S          0.49448  -0.32624   0.28497  -0.09880   0.48082
   3        3S         -1.25328  -0.53749  -0.01366   0.17255  -0.25370
   4        4S         -0.33426  -0.70415  -0.33907   1.00023   0.04819
   5        5PX        -0.50220   0.31163   0.25319   0.49072   0.21771
   6        5PY         0.25040   0.02246  -0.23789   0.41850  -0.36468
   7        5PZ         0.03386  -0.09623   0.09969   0.06784  -0.01579
   8        6PX         1.44971  -0.05764   0.10056  -0.71718  -0.35334
   9        6PY         0.11470   0.57879   0.30240  -0.07396  -0.16465
  10        6PZ        -0.02184   0.06421  -0.07360  -0.01148  -0.00489
  11        7PX         0.19605   0.28776  -0.01654   0.28835  -0.18481
  12        7PY         0.00054   0.33837  -0.15759  -0.42564  -0.03910
  13        7PZ         0.06586  -0.06050   0.18014   0.09030  -0.14108
  14        8D 0       -0.29066  -0.47398  -0.28060   0.24957  -0.13551
  15        8D+1       -0.05322   0.01796  -0.06820  -0.15780   0.17856
  16        8D-1       -0.08250   0.00648  -0.15662  -0.13645   0.17912
  17        8D+2        0.17205   0.00616   0.22629  -0.00794   0.03746
  18        8D-2        0.16018  -0.63630  -0.17975  -0.20876   0.04276
  19        9D 0        0.41092   0.35948   0.49588   0.02664   0.59060
  20        9D+1       -0.07449  -0.08675  -0.29386   0.02496   0.01058
  21        9D-1        0.05511   0.05598   0.12915   0.04993  -0.21107
  22        9D+2       -0.05561  -0.03353  -0.02718   0.46855  -0.04349
  23        9D-2       -0.41724   0.57316  -0.40154   0.71920   0.29122
  24 2   H  1S         -0.47671   0.41186  -0.44678   0.28916   0.07173
  25        2S          0.79151   0.34919   0.42227  -1.16533   0.02487
  26        3S         -0.38472  -0.06774  -0.22335   0.08514  -0.12432
  27        4PX         0.01294   0.07004   0.12943  -0.26759   0.27050
  28        4PY         0.07144  -0.24754  -0.61645  -0.04601   0.03444
  29        4PZ         0.02854   0.24529   0.18112  -0.15371   0.04459
  30        5PX        -0.49535  -0.19610   0.51837   0.41104  -0.30491
  31        5PY         0.08045   0.29066   0.10985  -0.22725   0.20309
  32        5PZ        -0.01740  -0.13048  -0.14559   0.13880  -0.10137
  33 3   H  1S          1.11214   0.57986   0.25581  -0.48344  -0.40361
  34        2S          0.10917   0.64994   0.60218   0.24832  -0.08054
  35        3S          0.24503  -0.10956  -0.26705  -0.19137  -0.13816
  36        4PX         0.43441   0.29626   0.20901   0.54275  -0.38742
  37        4PY        -0.34093   0.44986  -0.13567  -0.17502  -0.15378
  38        4PZ        -0.14821  -0.00698  -0.50832  -0.16041   0.16383
  39        5PX        -0.55417   0.19121  -0.09096   0.12666   0.16600
  40        5PY         0.39360  -0.35448   0.17273  -0.19288   0.14740
  41        5PZ         0.01995   0.08647   0.16642  -0.10354   0.10804
                          36        37        38        39        40
     Eigenvalues --    -0.00000  -0.00000  -0.00000  -0.00000  -0.00000
   1 1   O  1S         -0.02182   0.01047   0.00618   0.02938   0.00185
   2        2S          0.25013  -0.23637  -0.19715  -0.04797   0.01122
   3        3S         -0.02339  -0.23555  -0.18849  -0.07996   0.01899
   4        4S          0.16919  -0.30194  -0.24864  -0.02775   0.03318
   5        5PX         0.05554   0.22558  -0.38271  -0.02616  -0.01120
   6        5PY         0.07367   0.04944   0.05025   0.33985   0.00503
   7        5PZ         0.13083   0.20134   0.09606   0.16036   0.30581
   8        6PX         0.03967  -0.04241   0.30408   0.07748  -0.02446
   9        6PY        -0.45003   0.20751  -0.05483  -0.15262  -0.03488
  10        6PZ        -0.07506  -0.42482  -0.21448  -0.32253  -0.09865
  11        7PX         0.05157  -0.43963   0.23899   0.01365   0.04523
  12        7PY         0.29119  -0.22456  -0.10775  -0.15996   0.03182
  13        7PZ        -0.00065   0.34384   0.12291   0.18581   0.19341
  14        8D 0       -0.30185  -0.19606   0.25641   0.22460   0.06008
  15        8D+1       -0.38086  -0.07141   0.09577  -0.13146  -0.53746
  16        8D-1       -0.14672  -0.09712   0.04362  -0.04665  -0.09535
  17        8D+2        0.16607   0.36011   0.33644  -0.42920  -0.05855
  18        8D-2        0.06961   0.41078  -0.26896   0.08482  -0.01524
  19        9D 0        0.14127  -0.17626   0.06170   0.02671   0.01240
  20        9D+1        0.11116  -0.00681   0.06202  -0.02845   1.14229
  21        9D-1       -0.19242   0.11726   0.01370  -0.05149   0.17633
  22        9D+2       -0.22886   0.11956   0.16106   0.18805  -0.01263
  23        9D-2       -0.09235   0.02098  -0.26855  -0.03729   0.02119
  24 2   H  1S         -0.20503   0.10451  -0.45057   0.29695   0.03099
  25        2S         -0.43226   0.48353   0.30614   0.02971  -0.04928
  26        3S          0.30973   0.05815  -0.01127  -0.24644   0.01233
  27        4PX         0.35076  -0.14529  -0.08316   0.29620   0.02462
  28        4PY        -0.25179   0.11506   0.30317  -0.09516  -0.01594
  29        4PZ        -0.09399   0.22035  -0.03211   0.08018   0.07453
  30        5PX        -0.40684  -0.24418  -0.01975  -0.09504   0.01553
  31        5PY        -0.14357  -0.00659   0.07314   0.04602   0.00778
  32        5PZ         0.26336  -0.12211   0.04186   0.19959  -1.34542
  33 3   H  1S         -0.13732  -0.17265   0.19057   0.36411   0.00488
  34        2S         -0.39846   0.14424   0.16520   0.06813  -0.02265
  35        3S          0.16063  -0.33496   0.03259  -0.33667   0.03887
  36        4PX        -0.10146   0.16020   0.04273  -0.24276  -0.02153
  37        4PY         0.14997   0.37082   0.19079   0.02358  -0.03892
  38        4PZ        -0.10168   0.07881   0.27171   0.10063   0.27611
  39        5PX         0.48478   0.02371   0.34561   0.17373  -0.01206
  40        5PY        -0.04547   0.11310   0.02187   0.09927  -0.00166
  41        5PZ        -0.25692  -0.03362  -0.12650  -0.24346   0.57627
                          41
     Eigenvalues --    -0.00000
   1 1   O  1S         -0.01062
   2        2S          0.00175
   3        3S          0.04649
   4        4S         -0.09309
   5        5PX         0.01422
   6        5PY        -0.06925
   7        5PZ        -0.53063
   8        6PX         0.01778
   9        6PY        -0.04922
  10        6PZ         0.37935
  11        7PX         0.03983
  12        7PY         0.08740
  13        7PZ        -0.06775
  14        8D 0        0.19368
  15        8D+1       -0.24542
  16        8D-1       -0.49089
  17        8D+2       -0.04050
  18        8D-2        0.09229
  19        9D 0        0.02852
  20        9D+1       -0.09132
  21        9D-1        0.81470
  22        9D+2        0.03626
  23        9D-2        0.01482
  24 2   H  1S          0.01934
  25        2S         -0.05572
  26        3S         -0.00988
  27        4PX        -0.00377
  28        4PY         0.01461
  29        4PZ         0.58905
  30        5PX         0.00389
  31        5PY        -0.01255
  32        5PZ         0.07908
  33 3   H  1S          0.00016
  34        2S         -0.03383
  35        3S          0.05297
  36        4PX         0.05488
  37        4PY         0.07180
  38        4PZ         0.32270
  39        5PX        -0.02279
  40        5PY         0.06733
  41        5PZ        -0.31013
          Condensed to atoms (all electrons):
               1          2          3
     1  O    7.530479   0.319512   0.322372
     2  H    0.319512   0.675478  -0.086924
     3  H    0.322372  -0.086924   0.684122
          Atomic-Atomic Spin Densities.
               1          2          3
     1  O    0.000000  -0.000000  -0.000000
     2  H   -0.000000   0.000000  -0.000000
     3  H   -0.000000  -0.000000   0.000000
 Mulliken charges and spin densities:
               1          2
     1  O   -0.172363   0.000000
     2  H    0.091933  -0.000000
     3  H    0.080430  -0.000000
 Sum of Mulliken charges =  -0.00000  -0.00000
 Mulliken charges and spin densities with hydrogens summed into heavy atoms:
               1          2
     1  O   -0.000000  -0.000000

 Bonding Mulliken population analysis:
          Bonding Condensed to atoms (all electrons):
               1          2          3
     1  O    0.000000   0.319512   0.322372
     2  H    0.319512   0.000000  -0.086924
     3  H    0.322372  -0.086924   0.000000
          Bonding Atomic-Atomic Spin Densities.
               1          2          3
     1  O    0.000000  -0.000000  -0.000000
     2  H   -0.000000   0.000000  -0.000000
     3  H   -0.000000  -0.000000   0.000000
 Bonding Mulliken charges and spin densities:
               1          2
     1  O    7.358115  -0.000000
     2  H    0.767412  -0.000000
     3  H    0.764552  -0.000000
 Sum of Bonding Mulliken charges =   8.89008  -0.00000
 Bonding Mulliken charges and spin densities with hydrogens summed into heavy atoms:
               1          2
     1  O    8.890079  -0.000000
 Electronic spatial extent (au):  <R**2>=             20.1987
 Charge=              0.0000 electrons
 Dipole moment (field-independent basis, Debye):
    X=             -0.0051    Y=             -1.8244    Z=             -0.0000  Tot=              1.8245
 Quadrupole moment (field-independent basis, Debye-Ang):
   XX=             -4.4453   YY=             -6.5789   ZZ=             -7.8255
   XY=             -0.0313   XZ=              0.0000   YZ=             -0.0000
 Traceless Quadrupole moment (field-independent basis, Debye-Ang):
   XX=              1.8380   YY=             -0.2957   ZZ=             -1.5423
   XY=             -0.0313   XZ=              0.0000   YZ=             -0.0000
 Octapole moment (field-independent basis, Debye-Ang**2):
  XXX=             -0.0149  YYY=             -0.9280  ZZZ=             -0.0000  XYY=              0.0196
  XXY=             -1.2672  XXZ=             -0.0000  XZZ=             -0.0063  YZZ=             -0.2201
  YYZ=             -0.0000  XYZ=              0.0000
 Hexadecapole moment (field-independent basis, Debye-Ang**3):
 XXXX=             -6.8852 YYYY=             -8.3567 ZZZZ=             -7.9600 XXXY=             -0.0010
 XXXZ=              0.0000 YYYX=              0.0030 YYYZ=             -0.0000 ZZZX=              0.0000
 ZZZY=             -0.0000 XXYY=             -2.2999 XXZZ=             -2.8256 YYZZ=             -2.7635
 XXYZ=             -0.0000 YYXZ=              0.0000 ZZXY=              0.0083
 N-N= 9.110806377382D+00 E-N=-1.987708825330D+02  KE= 7.595718759232D+01
 Symmetry A'   KE= 7.150183413050D+01
 Symmetry A"   KE= 4.455353461817D+00
 Symmetry A'   SP=-1.171858844491D-16
 Symmetry A"   SP=-3.204970194944D-15

 Atomic contributions to Alpha molecular orbitals:
 Alpha occ 1 OE=-19.161 is O1-s=0.9982
 Alpha occ 2 OE=-1.021 is O1-s=0.7491 H3-s=0.1065
 Alpha occ 3 OE=-0.543 is O1-p=0.5342 H2-s=0.2354 H3-s=0.2338
 Alpha occ 4 OE=-0.396 is O1-p=0.7195 O1-s=0.1228
 Alpha occ 5 OE=-0.323 is O1-p=0.9493
 Alpha vir 6 OE=-0.025 is H2-s=0.6423 H3-s=0.6152 O1-s=-0.2965
 Alpha vir 7 OE=0.022 is H3-s=0.6727 H2-s=0.6285 O1-p=-0.3059
 Alpha vir 8 OE=0.100 is O1-p=0.9825 O1-s=0.3156 H3-s=-0.2162 H2-s=-0.2012
 Alpha vir 9 OE=0.119 is O1-p=1.1681
 Alpha vir 10 OE=0.129 is O1-p=0.4706 O1-s=0.4350
 Alpha vir 11 OE=0.149 is O1-p=0.7263 H3-p=0.2939 H2-p=0.2791 H3-s=-0.1954 H2-s=-0.1248
 Alpha vir 12 OE=0.178 is O1-p=1.2216 H2-s=-0.1416
 Alpha vir 13 OE=0.218 is O1-s=1.1225 H2-s=-0.1817 H3-s=-0.1733 H2-p=0.1697 H3-p=0.1648
 Alpha vir 14 OE=0.273 is H2-p=0.5380 H3-p=0.5048
 Alpha vir 15 OE=0.293 is O1-s=0.6462 H2-p=0.3662 H3-p=0.3659 O1-p=-0.2582
 Alpha vir 16 OE=0.320 is H3-p=0.6160 H2-p=0.5774 O1-p=-0.1826
 Alpha vir 17 OE=0.434 is H3-p=0.5869 H2-p=0.5694
 Alpha vir 18 OE=0.500 is O1-s=-0.8203 H2-p=0.7061 H3-p=0.4488 H2-s=0.4063 H3-s=0.2682
 Alpha vir 19 OE=0.520 is H3-s=0.4649 H3-p=0.4521 O1-p=-0.3479 H2-s=0.2368 H2-p=0.1993
 Alpha vir 20 OE=0.626 is H2-s=0.6982 H3-s=0.6187 O1-p=-0.4178 O1-d=0.4045 H3-p=-0.1539 H2-p=-0.1489
 Alpha vir 21 OE=0.729 is O1-s=-0.8183 H3-s=0.7304 H2-s=0.7216 O1-d=0.4487 O1-p=-0.1536
 Alpha vir 22 OE=0.900 is O1-d=0.9117
 Alpha vir 23 OE=0.912 is O1-d=0.8757
 Alpha vir 24 OE=0.951 is O1-d=0.9912
 Alpha vir 25 OE=1.072 is O1-p=0.4220 O1-d=0.3886 O1-s=-0.1992 H2-s=0.1643 H3-s=0.1640
 Alpha vir 26 OE=1.190 is O1-p=1.0588
 Alpha vir 27 OE=1.219 is O1-p=0.7128 O1-d=0.2962
 Alpha vir 28 OE=1.304 is O1-p=0.6743 O1-d=0.2176
 Alpha vir 29 OE=1.728 is H2-p=0.4692 H3-p=0.4572
 Alpha vir 30 OE=1.755 is H2-p=0.5129 H3-p=0.4345
 Alpha vir 31 OE=1.834 is H3-p=0.5224 H2-p=0.4430
 Alpha vir 32 OE=2.123 is O1-p=0.4846 H2-p=0.3235 H3-p=0.2597
 Alpha vir 33 OE=2.130 is H3-p=0.4095 H2-p=0.4009 O1-s=0.1031
 Alpha vir 34 OE=2.269 is O1-s=0.5703 H3-p=0.2217 H2-p=0.1950
 Alpha vir 35 OE=2.402 is O1-p=0.4049 O1-d=0.3877 H3-p=0.1879 H2-p=0.1566
 Alpha vir 36 OE=2.626 is O1-s=0.9512 O1-d=0.2008 H3-s=-0.1872 H2-s=-0.1867
 Alpha vir 37 OE=3.283 is O1-d=0.9977
 Alpha vir 38 OE=3.295 is O1-d=0.9905
 Alpha vir 39 OE=3.311 is O1-d=0.9990
 Alpha vir 40 OE=3.626 is O1-d=0.8205 O1-s=0.1261
 Alpha vir 41 OE=3.864 is O1-d=0.8398

 Atomic contributions to Beta  molecular orbitals:
 Beta  occ 1 OE=-19.161 is O1-s=0.9982
 Beta  occ 2 OE=-1.021 is O1-s=0.7491 H3-s=0.1065
 Beta  occ 3 OE=-0.543 is O1-p=0.5342 H2-s=0.2354 H3-s=0.2338
 Beta  occ 4 OE=-0.396 is O1-p=0.7195 O1-s=0.1228
 Beta  occ 5 OE=-0.323 is O1-p=0.9493
 Beta  vir 6 OE=-0.025 is H2-s=0.6423 H3-s=0.6152 O1-s=-0.2965
 Beta  vir 7 OE=0.022 is H3-s=0.6727 H2-s=0.6285 O1-p=-0.3059
 Beta  vir 8 OE=0.100 is O1-p=0.9825 O1-s=0.3156 H3-s=-0.2162 H2-s=-0.2012
 Beta  vir 9 OE=0.119 is O1-p=1.1681
 Beta  vir 10 OE=0.129 is O1-p=0.4706 O1-s=0.4350
 Beta  vir 11 OE=0.149 is O1-p=0.7263 H3-p=0.2939 H2-p=0.2791 H3-s=-0.1954 H2-s=-0.1248
 Beta  vir 12 OE=0.178 is O1-p=1.2216 H2-s=-0.1416
 Beta  vir 13 OE=0.218 is O1-s=1.1225 H2-s=-0.1817 H3-s=-0.1733 H2-p=0.1697 H3-p=0.1648
 Beta  vir 14 OE=0.273 is H2-p=0.5380 H3-p=0.5048
 Beta  vir 15 OE=0.293 is O1-s=0.6462 H2-p=0.3662 H3-p=0.3659 O1-p=-0.2582
 Beta  vir 16 OE=0.320 is H3-p=0.6160 H2-p=0.5774 O1-p=-0.1826
 Beta  vir 17 OE=0.434 is H3-p=0.5869 H2-p=0.5694
 Beta  vir 18 OE=0.500 is O1-s=-0.8203 H2-p=0.7061 H3-p=0.4488 H2-s=0.4063 H3-s=0.2682
 Beta  vir 19 OE=0.520 is H3-s=0.4649 H3-p=0.4521 O1-p=-0.3479 H2-s=0.2368 H2-p=0.1993
 Beta  vir 20 OE=0.626 is H2-s=0.6982 H3-s=0.6187 O1-p=-0.4178 O1-d=0.4045 H3-p=-0.1539 H2-p=-0.1489
 Beta  vir 21 OE=0.729 is O1-s=-0.8183 H3-s=0.7304 H2-s=0.7216 O1-d=0.4487 O1-p=-0.1536
 Beta  vir 22 OE=0.900 is O1-d=0.9117
 Beta  vir 23 OE=0.912 is O1-d=0.8757
 Beta  vir 24 OE=0.951 is O1-d=0.9912
 Beta  vir 25 OE=1.072 is O1-p=0.4220 O1-d=0.3886 O1-s=-0.1992 H2-s=0.1643 H3-s=0.1640
 Beta  vir 26 OE=1.190 is O1-p=1.0588
 Beta  vir 27 OE=1.219 is O1-p=0.7128 O1-d=0.2962
 Beta  vir 28 OE=1.304 is O1-p=0.6743 O1-d=0.2176
 Beta  vir 29 OE=1.728 is H2-p=0.4692 H3-p=0.4572
 Beta  vir 30 OE=1.755 is H2-p=0.5129 H3-p=0.4345
 Beta  vir 31 OE=1.834 is H3-p=0.5224 H2-p=0.4430
 Beta  vir 32 OE=2.123 is O1-p=0.4846 H2-p=0.3235 H3-p=0.2597
 Beta  vir 33 OE=2.130 is H3-p=0.4095 H2-p=0.4009 O1-s=0.1031
 Beta  vir 34 OE=2.269 is O1-s=0.5703 H3-p=0.2217 H2-p=0.1950
 Beta  vir 35 OE=2.402 is O1-p=0.4049 O1-d=0.3877 H3-p=0.1879 H2-p=0.1566
 Beta  vir 36 OE=2.626 is O1-s=0.9512 O1-d=0.2008 H3-s=-0.1872 H2-s=-0.1867
 Beta  vir 37 OE=3.283 is O1-d=0.9977
 Beta  vir 38 OE=3.295 is O1-d=0.9905
 Beta  vir 39 OE=3.311 is O1-d=0.9990
 Beta  vir 40 OE=3.626 is O1-d=0.8205 O1-s=0.1261
 Beta  vir 41 OE=3.864 is O1-d=0.8398
 
                          Isotropic Fermi Contact Couplings
        Atom                 a.u.       MegaHertz       Gauss      10(-4) cm-1
     1  O(17)              0.00000      -0.00000      -0.00000      -0.00000
     2  H(1)              -0.00000      -0.00000      -0.00000      -0.00000
     3  H(1)               0.00000       0.00000       0.00000       0.00000
 --------------------------------------------------------
       Center         ----  Spin Dipole Couplings  ----
                      3XX-RR        3YY-RR        3ZZ-RR
 --------------------------------------------------------
     1   Atom        0.000000      0.000000      0.000000
     2   Atom        0.000000      0.000000      0.000000
     3   Atom        0.000000      0.000000      0.000000
 --------------------------------------------------------
                        XY            XZ            YZ
 --------------------------------------------------------
     1   Atom        0.000000      0.000000      0.000000
     2   Atom        0.000000      0.000000      0.000000
     3   Atom        0.000000      0.000000      0.000000
 --------------------------------------------------------


 ---------------------------------------------------------------------------------
              Anisotropic Spin Dipole Couplings in Principal Axis System
 ---------------------------------------------------------------------------------

       Atom             a.u.   MegaHertz   Gauss  10(-4) cm-1        Axes

              Baa     0.0000    -0.000    -0.000    -0.000  1.0000  0.0000  0.0000
     1 O(17)  Bbb     0.0000    -0.000    -0.000    -0.000 -0.0000  1.0000  0.0000
              Bcc     0.0000    -0.000    -0.000    -0.000  0.0000  0.0000  1.0000
 
              Baa     0.0000     0.000     0.000     0.000  1.0000  0.0000  0.0000
     2 H(1)   Bbb     0.0000     0.000     0.000     0.000 -0.0000  1.0000  0.0000
              Bcc     0.0000     0.000     0.000     0.000  0.0000  0.0000  1.0000
 
              Baa     0.0000     0.000     0.000     0.000  1.0000  0.0000  0.0000
     3 H(1)   Bbb     0.0000     0.000     0.000     0.000 -0.0000  1.0000  0.0000
              Bcc     0.0000     0.000     0.000     0.000  0.0000  0.0000  1.0000
 

 ---------------------------------------------------------------------------------

 No NMR shielding tensors so no spin-rotation constants.
 Leave Link  601 at Mon Aug  3 15:43:47 2020, MaxMem=   524288000 cpu:               1.2 elap:               0.2
 (Enter /home/ubuntu/g16/l602.exe)
 FitSet:  NAtFit=     3 NAtPot=     3 NAtFrz=     0 MDM=     7 TotChg=   0.00000
 Merz-Kollman atomic radii used.

 **********************************************************************

            Electrostatic Properties Using The SCF Density

 **********************************************************************

       Atomic Center    1 is at   0.000000  0.115227  0.000000
       Atomic Center    2 is at   0.774775 -0.470184 -0.000000
       Atomic Center    3 is at  -0.774775 -0.451630 -0.000000
     292 points will be used for fitting atomic charges
 Fitting point charges to electrostatic potential
 Charges from ESP fit, RMS=   0.00384 RRMS=   0.19384:
 ESP charges:
               1
     1  O   -0.686184
     2  H    0.344116
     3  H    0.342069
 Sum of ESP charges =   0.00000
 ESP charges with hydrogens summed into heavy atoms:
               1
     1  O    0.000000
 Charge=   0.00000 Dipole=     0.0076    -1.8990    -0.0000 Tot=     1.8990
 -----------------------------------------------------------------

              Electrostatic Properties (Atomic Units)

 -----------------------------------------------------------------
    Center     Electric         -------- Electric Field --------
               Potential          X             Y             Z
 -----------------------------------------------------------------
    1 Atom    -22.322210
    2 Atom     -0.984853
    3 Atom     -0.986746
 -----------------------------------------------------------------
 Leave Link  602 at Mon Aug  3 15:43:47 2020, MaxMem=   524288000 cpu:               0.2 elap:               0.0
 (Enter /home/ubuntu/g16/l607.exe)
 ******************************Gaussian NBO Version 3.1******************************
             N A T U R A L   A T O M I C   O R B I T A L   A N D
          N A T U R A L   B O N D   O R B I T A L   A N A L Y S I S
 ******************************Gaussian NBO Version 3.1******************************

       /RESON  / : Allow strongly delocalized NBO set
       /BNDIDX / : Print bond indices based on the NAO density matrix

 Analyzing the SCF density

 Job title: HOH_UB3LYP-aug-cc-pVDZ                                          

 Storage needed:      5291 in NPA,      6879 in NBO ( 524287937 available)
 GSVD:  LWork=        -233 too small for GESVD, short by        3800 words or        3800 for optimal perf.


 NATURAL POPULATIONS:  Natural atomic orbital occupancies 
                                                          
   NAO  Atom  No  lang   Type(AO)    Occupancy
 --------------------------------------------
     1    O    1  S      Cor( 1S)     1.99988
     2    O    1  S      Val( 2S)     1.75887
     3    O    1  S      Ryd( 3S)     0.00104
     4    O    1  S      Ryd( 4S)     0.00000
     5    O    1  px     Val( 2p)     1.46879
     6    O    1  px     Ryd( 3p)     0.00530
     7    O    1  px     Ryd( 4p)     0.00000
     8    O    1  py     Val( 2p)     1.72718
     9    O    1  py     Ryd( 3p)     0.00072
    10    O    1  py     Ryd( 4p)     0.00003
    11    O    1  pz     Val( 2p)     1.98809
    12    O    1  pz     Ryd( 3p)     0.00251
    13    O    1  pz     Ryd( 4p)     0.00000
    14    O    1  dxy    Ryd( 4d)     0.00000
    15    O    1  dxy    Ryd( 3d)     0.00193
    16    O    1  dxz    Ryd( 3d)     0.00000
    17    O    1  dxz    Ryd( 4d)     0.00000
    18    O    1  dyz    Ryd( 3d)     0.00365
    19    O    1  dyz    Ryd( 4d)     0.00001
    20    O    1  dx2y2  Ryd( 3d)     0.00281
    21    O    1  dx2y2  Ryd( 4d)     0.00008
    22    O    1  dz2    Ryd( 3d)     0.00060
    23    O    1  dz2    Ryd( 4d)     0.00038

    24    H    2  S      Val( 1S)     0.51026
    25    H    2  S      Ryd( 2S)     0.00066
    26    H    2  S      Ryd( 3S)     0.00001
    27    H    2  px     Ryd( 2p)     0.00079
    28    H    2  px     Ryd( 3p)     0.00070
    29    H    2  py     Ryd( 2p)     0.00207
    30    H    2  py     Ryd( 3p)     0.00082
    31    H    2  pz     Ryd( 2p)     0.00278
    32    H    2  pz     Ryd( 3p)     0.00008

    33    H    3  S      Val( 1S)     0.51203
    34    H    3  S      Ryd( 2S)     0.00065
    35    H    3  S      Ryd( 3S)     0.00002
    36    H    3  px     Ryd( 2p)     0.00077
    37    H    3  px     Ryd( 3p)     0.00073
    38    H    3  py     Ryd( 2p)     0.00207
    39    H    3  py     Ryd( 3p)     0.00080
    40    H    3  pz     Ryd( 2p)     0.00281
    41    H    3  pz     Ryd( 3p)     0.00008


 Summary of Natural Population Analysis:                  
                                                          
                                       Natural Population 
                Natural  -----------------------------------------------
    Atom  No    Charge         Core      Valence    Rydberg      Total
 -----------------------------------------------------------------------
      O    1   -0.96188      1.99988     6.94293    0.01906     8.96188
      H    2    0.48184      0.00000     0.51026    0.00791     0.51816
      H    3    0.48004      0.00000     0.51203    0.00793     0.51996
 =======================================================================
   * Total *   -0.00000      1.99988     7.96522    0.03490    10.00000

                                 Natural Population      
 --------------------------------------------------------
   Core                       1.99988 ( 99.9942% of   2)
   Valence                    7.96522 ( 99.5652% of   8)
   Natural Minimal Basis      9.96510 ( 99.6510% of  10)
   Natural Rydberg Basis      0.03490 (  0.3490% of  10)
 --------------------------------------------------------

    Atom  No          Natural Electron Configuration
 ----------------------------------------------------------------------------
      O    1      [core]2S( 1.76)2p( 5.18)3p( 0.01)3d( 0.01)
      H    2            1S( 0.51)2p( 0.01)
      H    3            1S( 0.51)2p( 0.01)


 Wiberg bond index matrix in the NAO basis:                                    

     Atom    1       2       3
     ---- ------  ------  ------
   1.  O  0.0000  0.7727  0.7745
   2.  H  0.7727  0.0000  0.0011
   3.  H  0.7745  0.0011  0.0000


 Wiberg bond index, Totals by atom:                                            

     Atom    1
     ---- ------
   1.  O  1.5472
   2.  H  0.7739
   3.  H  0.7756


 Atom-atom overlap-weighted NAO bond order:                                    

     Atom    1       2       3
     ---- ------  ------  ------
   1.  O  0.0000  0.6637  0.6706
   2.  H  0.6637  0.0000 -0.0009
   3.  H  0.6706 -0.0009  0.0000


 Atom-atom overlap-weighted NAO bond order, Totals by atom:                    

     Atom    1
     ---- ------
   1.  O  1.3343
   2.  H  0.6628
   3.  H  0.6698


 MO bond order:                                                                

     Atom    1       2       3
     ---- ------  ------  ------
   1.  O  0.0000  0.6438 -0.6085
   2.  H  0.6438  0.0000 -0.0575
   3.  H -0.6085 -0.0575  0.0000


 MO atomic valencies:                                                          

     Atom    1
     ---- ------
   1.  O  0.0353
   2.  H  0.5863
   3.  H -0.6659


 ***************************************************
 *******         Alpha spin orbitals         *******
 ***************************************************


 NATURAL POPULATIONS:  Natural atomic orbital occupancies 
                                                          
   NAO  Atom  No  lang   Type(AO)    Occupancy      Energy
 ----------------------------------------------------------
     1    O    1  S      Cor( 1S)     0.99994     -18.99309
     2    O    1  S      Val( 2S)     0.87943      -0.92518
     3    O    1  S      Ryd( 4S)     0.00052       2.31746
     4    O    1  S      Ryd( 3S)     0.00000       0.48877
     5    O    1  px     Val( 2p)     0.73440      -0.27614
     6    O    1  px     Ryd( 4p)     0.00265       0.83637
     7    O    1  px     Ryd( 3p)     0.00000       0.47102
     8    O    1  py     Val( 2p)     0.86359      -0.30576
     9    O    1  py     Ryd( 4p)     0.00036       0.69877
    10    O    1  py     Ryd( 3p)     0.00001       0.49454
    11    O    1  pz     Val( 2p)     0.99405      -0.31689
    12    O    1  pz     Ryd( 4p)     0.00125       0.67606
    13    O    1  pz     Ryd( 3p)     0.00000       0.46319
    14    O    1  dxy    Ryd( 3d)     0.00000       2.23552
    15    O    1  dxy    Ryd( 4d)     0.00097       3.15493
    16    O    1  dxz    Ryd( 3d)     0.00000       1.13161
    17    O    1  dxz    Ryd( 4d)     0.00000       3.10622
    18    O    1  dyz    Ryd( 3d)     0.00182       1.08891
    19    O    1  dyz    Ryd( 4d)     0.00000       3.06759
    20    O    1  dx2y2  Ryd( 3d)     0.00141       1.31844
    21    O    1  dx2y2  Ryd( 4d)     0.00004       3.11767
    22    O    1  dz2    Ryd( 3d)     0.00030       1.42073
    23    O    1  dz2    Ryd( 4d)     0.00019       3.05249

    24    H    2  S      Val( 1S)     0.25513       0.12333
    25    H    2  S      Ryd( 3S)     0.00033       0.37880
    26    H    2  S      Ryd( 2S)     0.00001       0.28126
    27    H    2  px     Ryd( 3p)     0.00039       1.52446
    28    H    2  px     Ryd( 2p)     0.00035       1.17225
    29    H    2  py     Ryd( 3p)     0.00103       1.47835
    30    H    2  py     Ryd( 2p)     0.00041       1.13169
    31    H    2  pz     Ryd( 3p)     0.00139       1.12396
    32    H    2  pz     Ryd( 2p)     0.00004       1.06889

    33    H    3  S      Val( 1S)     0.25602       0.13477
    34    H    3  S      Ryd( 3S)     0.00033       0.37557
    35    H    3  S      Ryd( 2S)     0.00001       0.28046
    36    H    3  px     Ryd( 3p)     0.00039       1.55862
    37    H    3  px     Ryd( 2p)     0.00036       1.16622
    38    H    3  py     Ryd( 3p)     0.00104       1.48731
    39    H    3  py     Ryd( 2p)     0.00040       1.12547
    40    H    3  pz     Ryd( 3p)     0.00141       1.13926
    41    H    3  pz     Ryd( 2p)     0.00004       1.06373

 WARNING:  Population inversion found on atom  O    1
           Population inversion found on atom  H    2
           Population inversion found on atom  H    3


 Summary of Natural Population Analysis:                  
                                                          
                                       Natural Population 
                Natural  -----------------------------------------------
    Atom  No    Charge         Core      Valence    Rydberg      Total
 -----------------------------------------------------------------------
      O    1   -0.48094      0.99994     3.47146    0.00953     4.48094
      H    2    0.24092      0.00000     0.25513    0.00395     0.25908
      H    3    0.24002      0.00000     0.25602    0.00396     0.25998
 =======================================================================
   * Total *   -0.00000      0.99994     3.98261    0.01745     5.00000

                                 Natural Population      
 --------------------------------------------------------
   Core                       0.99994 ( 99.9942% of   1)
   Valence                    3.98261 ( 99.5652% of   4)
   Natural Minimal Basis      4.98255 ( 99.6510% of   5)
   Natural Rydberg Basis      0.01745 (  0.3490% of   5)
 --------------------------------------------------------

    Atom  No          Natural Electron Configuration
 ----------------------------------------------------------------------------
      O    1      [core]2S( 0.88)2p( 2.59)
      H    2            1S( 0.26)
      H    3            1S( 0.26)


 Wiberg bond index matrix in the NAO basis:                                    

     Atom    1       2       3
     ---- ------  ------  ------
   1.  O  0.0000  0.1932  0.1936
   2.  H  0.1932  0.0000  0.0003
   3.  H  0.1936  0.0003  0.0000


 Wiberg bond index, Totals by atom:                                            

     Atom    1
     ---- ------
   1.  O  0.3868
   2.  H  0.1935
   3.  H  0.1939


 Atom-atom overlap-weighted NAO bond order:                                    

     Atom    1       2       3
     ---- ------  ------  ------
   1.  O  0.0000  0.3318  0.3353
   2.  H  0.3318  0.0000 -0.0004
   3.  H  0.3353 -0.0004  0.0000


 Atom-atom overlap-weighted NAO bond order, Totals by atom:                    

     Atom    1
     ---- ------
   1.  O  0.6672
   2.  H  0.3314
   3.  H  0.3349


 MO bond order:                                                                

     Atom    1       2       3
     ---- ------  ------  ------
   1.  O  0.0000  0.3219 -0.3042
   2.  H  0.3219  0.0000 -0.0287
   3.  H -0.3042 -0.0287  0.0000


 MO atomic valencies:                                                          

     Atom    1
     ---- ------
   1.  O  0.0177
   2.  H  0.2932
   3.  H -0.3330


 NATURAL BOND ORBITAL ANALYSIS, alpha spin orbitals:

                       Occupancies       Lewis Structure    Low   High
           Occ.    -------------------  -----------------   occ   occ
  Cycle   Thresh.   Lewis   Non-Lewis     CR  BD  3C  LP    (L)   (NL)   Dev
 =============================================================================
   1(1)    0.90     4.99407   0.00593      1   2   0   2     0      0    0.00
 -----------------------------------------------------------------------------

 Structure accepted: No low occupancy Lewis orbitals

 --------------------------------------------------------
   Core                      0.99994 ( 99.994% of   1)
   Valence Lewis             3.99412 ( 99.853% of   4)
  ==================       ============================
   Total Lewis               4.99407 ( 99.881% of   5)
  -----------------------------------------------------
   Valence non-Lewis         0.00006 (  0.001% of   5)
   Rydberg non-Lewis         0.00587 (  0.117% of   5)
  ==================       ============================
   Total non-Lewis           0.00593 (  0.119% of   5)
 --------------------------------------------------------


       (Occupancy)   Bond orbital/ Coefficients/ Hybrids
 ---------------------------------------------------------------------------------
     1. (0.99946) BD ( 1) O   1 - H   2  
                ( 74.37%)   0.8624* O   1 s( 23.33%)p 3.28( 76.55%)d 0.01(  0.12%)
                                            0.0000  0.4828  0.0139 -0.0000  0.7028
                                           -0.0418 -0.0011 -0.5195  0.0044 -0.0023
                                            0.0000  0.0000  0.0000 -0.0009 -0.0253
                                            0.0000  0.0000  0.0000  0.0000 -0.0169
                                            0.0045 -0.0113 -0.0109
                ( 25.63%)   0.5062* H   2 s( 99.60%)p 0.00(  0.40%)
                                            0.9980 -0.0002 -0.0000 -0.0356 -0.0353
                                            0.0090  0.0380  0.0000  0.0000
     2. (0.99946) BD ( 1) O   1 - H   3  
                ( 74.28%)   0.8619* O   1 s( 23.92%)p 3.17( 75.95%)d 0.01(  0.12%)
                                           -0.0000 -0.4889 -0.0150 -0.0000  0.7079
                                           -0.0429 -0.0005  0.5065 -0.0050  0.0029
                                            0.0000  0.0000  0.0000 -0.0012 -0.0259
                                            0.0000  0.0000  0.0000  0.0000  0.0165
                                           -0.0055  0.0112  0.0113
                ( 25.72%)   0.5071* H   3 s( 99.60%)p 0.00(  0.40%)
                                           -0.9980  0.0002  0.0000 -0.0353 -0.0360
                                           -0.0087 -0.0373  0.0000  0.0000
     3. (0.99994) CR ( 1) O   1           s(100.00%)
                                            1.0000 -0.0001  0.0000  0.0000 -0.0000
                                            0.0000  0.0000 -0.0000 -0.0000  0.0000
                                            0.0000  0.0000  0.0000  0.0000  0.0000
                                            0.0000  0.0000  0.0000  0.0000 -0.0000
                                           -0.0000 -0.0000  0.0000
     4. (0.99807) LP ( 1) O   1           s( 52.75%)p 0.89( 47.13%)d 0.00(  0.11%)
                                            0.0001  0.7262 -0.0145  0.0000  0.0095
                                           -0.0001 -0.0001  0.6862  0.0181 -0.0015
                                            0.0000  0.0000  0.0000 -0.0007 -0.0001
                                            0.0000  0.0000  0.0000  0.0000  0.0315
                                           -0.0000  0.0106 -0.0025
     5. (0.99713) LP ( 2) O   1           s(  0.00%)p 1.00( 99.82%)d 0.00(  0.18%)
                                            0.0000  0.0000  0.0000  0.0000  0.0000
                                            0.0000  0.0000  0.0000  0.0000  0.0000
                                            0.9985  0.0355 -0.0002  0.0000  0.0000
                                           -0.0005 -0.0001 -0.0428  0.0018  0.0000
                                            0.0000  0.0000  0.0000
     6. (0.00000) RY*( 1) O   1           s( 99.94%)p 0.00(  0.06%)d 0.00(  0.00%)
     7. (0.00000) RY*( 2) O   1           s(100.00%)
     8. (0.00000) RY*( 3) O   1           s(  0.00%)p 1.00(100.00%)d 0.00(  0.00%)
     9. (0.00000) RY*( 4) O   1           s(  0.00%)p 1.00(100.00%)
    10. (0.00000) RY*( 5) O   1           s(  0.03%)p99.99( 99.97%)d 0.00(  0.00%)
    11. (0.00000) RY*( 6) O   1           s(  0.00%)p 1.00(100.00%)
    12. (0.00000) RY*( 7) O   1           s(  0.00%)p 1.00(100.00%)d 0.00(  0.00%)
    13. (0.00000) RY*( 8) O   1           s(  0.00%)p 1.00(100.00%)
    14. (0.00000) RY*( 9) O   1           s(  0.00%)p 0.00(  0.00%)d 1.00(100.00%)
    15. (0.00000) RY*(10) O   1           s(  0.00%)p 1.00(  0.13%)d99.99( 99.87%)
    16. (0.00000) RY*(11) O   1           s(  0.00%)p 0.00(  0.00%)d 1.00(100.00%)
    17. (0.00000) RY*(12) O   1           s(  0.00%)p 0.00(  0.00%)d 1.00(100.00%)
    18. (0.00000) RY*(13) O   1           s(  0.00%)p 1.00(  0.18%)d99.99( 99.82%)
    19. (0.00000) RY*(14) O   1           s(  0.00%)p 0.00(  0.00%)d 1.00(100.00%)
    20. (0.00000) RY*(15) O   1           s(  0.00%)p 1.00(  0.15%)d99.99( 99.85%)
    21. (0.00000) RY*(16) O   1           s(  0.00%)p 0.00(  0.00%)d 1.00( 99.99%)
    22. (0.00000) RY*(17) O   1           s(  0.00%)p 1.00(  0.04%)d99.99( 99.96%)
    23. (0.00000) RY*(18) O   1           s(  0.02%)p 0.60(  0.01%)d99.99( 99.97%)
    24. (0.00143) RY*( 1) H   2           s(  0.00%)p 1.00(100.00%)
                                            0.0000  0.0000  0.0000  0.0000  0.0000
                                            0.0000  0.0000  0.9864 -0.1647
    25. (0.00123) RY*( 2) H   2           s(  9.20%)p 9.88( 90.80%)
                                           -0.0103  0.3029 -0.0090 -0.2414 -0.0809
                                           -0.8996  0.1844 -0.0000 -0.0000
    26. (0.00026) RY*( 3) H   2           s( 83.49%)p 0.20( 16.51%)
                                            0.0148  0.9134  0.0181  0.0486  0.2999
                                            0.2434 -0.1165  0.0000  0.0000
    27. (0.00000) RY*( 4) H   2           s(  7.17%)p12.96( 92.83%)
    28. (0.00001) RY*( 5) H   2           s( 99.98%)p 0.00(  0.02%)
    29. (0.00000) RY*( 6) H   2           s(  0.40%)p99.99( 99.60%)
    30. (0.00000) RY*( 7) H   2           s(  0.18%)p99.99( 99.82%)
    31. (0.00000) RY*( 8) H   2           s(  0.00%)p 1.00(100.00%)
    32. (0.00144) RY*( 1) H   3           s(  0.00%)p 1.00(100.00%)
                                            0.0000  0.0000  0.0000  0.0000  0.0000
                                            0.0000  0.0000  0.9862 -0.1654
    33. (0.00123) RY*( 2) H   3           s(  8.98%)p10.14( 91.02%)
                                           -0.0102  0.2990 -0.0171  0.2349  0.0848
                                           -0.9024  0.1832 -0.0000 -0.0000
    34. (0.00026) RY*( 3) H   3           s( 83.65%)p 0.20( 16.35%)
                                            0.0153  0.9139  0.0310 -0.0661 -0.3057
                                            0.2356 -0.1012  0.0000  0.0000
    35. (0.00000) RY*( 4) H   3           s(  7.44%)p12.44( 92.56%)
    36. (0.00001) RY*( 5) H   3           s( 99.93%)p 0.00(  0.07%)
    37. (0.00000) RY*( 6) H   3           s(  0.27%)p99.99( 99.73%)
    38. (0.00000) RY*( 7) H   3           s(  0.13%)p99.99( 99.87%)
    39. (0.00000) RY*( 8) H   3           s(  0.00%)p 1.00(100.00%)
    40. (0.00003) BD*( 1) O   1 - H   2  
                ( 25.63%)   0.5062* O   1 s( 23.33%)p 3.28( 76.55%)d 0.01(  0.12%)
                ( 74.37%)  -0.8624* H   2 s( 99.60%)p 0.00(  0.40%)
    41. (0.00003) BD*( 1) O   1 - H   3  
                ( 25.72%)   0.5071* O   1 s( 23.92%)p 3.17( 75.95%)d 0.01(  0.12%)
                ( 74.28%)  -0.8619* H   3 s( 99.60%)p 0.00(  0.40%)


 NHO Directionality and "Bond Bending" (deviations from line of nuclear centers)

         [Thresholds for printing:  angular deviation  >  1.0 degree]
                                    hybrid p-character > 25.0%
                                    orbital occupancy  >  0.10e

                                Line of Centers        Hybrid 1              Hybrid 2
                                ---------------  -------------------   ------------------
                NBO               Theta   Phi    Theta   Phi    Dev    Theta   Phi    Dev
 ========================================================================================
     1. BD (   1) O   1 - H   2    90.0  322.9    90.0  321.9   1.0      --     --    --
     2. BD (   1) O   1 - H   3    90.0  216.2    90.0  217.2   1.0      --     --    --
     4. LP (   1) O   1             --     --     90.0   89.2   --       --     --    --
     5. LP (   2) O   1             --     --      0.0    0.0   --       --     --    --


 Second Order Perturbation Theory Analysis of Fock Matrix in NBO Basis

     Threshold for printing:   0.25 kcal/mol
                                                                              E(2)  E(j)-E(i) F(i,j)
         Donor NBO (i)                     Acceptor NBO (j)                 kcal/mol   a.u.    a.u. 
 ===================================================================================================

 within unit  1
   1. BD (   1) O   1 - H   2        / 33. RY*(   2) H   3                    0.33    1.73    0.030
   2. BD (   1) O   1 - H   3        / 25. RY*(   2) H   2                    0.32    1.72    0.030
   4. LP (   1) O   1                / 25. RY*(   2) H   2                    0.68    1.62    0.042
[...]
    19. RY*(  14) O   1                  0.00000     3.05662   
    20. RY*(  15) O   1                  0.00000     1.31617   
    21. RY*(  16) O   1                  0.00000     3.10234   
    22. RY*(  17) O   1                  0.00000     1.44316   
    23. RY*(  18) O   1                  0.00000     3.03931   
    24. RY*(   1) H   2                  0.00146     0.93128   
    25. RY*(   2) H   2                  0.00124     0.99859   
    26. RY*(   3) H   2                  0.00027     0.63914   
    27. RY*(   4) H   2                  0.00000     1.00492   
    28. RY*(   5) H   2                  0.00001     0.28291   
    29. RY*(   6) H   2                  0.00000     1.35183   
    30. RY*(   7) H   2                  0.00000     1.67714   
    31. RY*(   8) H   2                  0.00000     1.26551   
    32. RY*(   1) H   3                  0.00146     0.93119   
    33. RY*(   2) H   3                  0.00124     0.99849   
    34. RY*(   3) H   3                  0.00027     0.63913   
    35. RY*(   4) H   3                  0.00000     1.00504   
    36. RY*(   5) H   3                  0.00001     0.28291   
    37. RY*(   6) H   3                  0.00000     1.35189   
    38. RY*(   7) H   3                  0.00000     1.67691   
    39. RY*(   8) H   3                  0.00000     1.26553   
    40. BD*(   1) O   1 - H   2          0.00001     0.46208   
    41. BD*(   1) O   1 - H   3          0.00001     0.46194   
       -------------------------------
              Total Lewis    4.99399  ( 99.8798%)
        Valence non-Lewis    0.00003  (  0.0006%)
        Rydberg non-Lewis    0.00598  (  0.1196%)
       -------------------------------
            Total unit  1    5.00000  (100.0000%)
           Charge unit  1    0.00000
 Leave Link  607 at Mon Aug  3 15:43:54 2020, MaxMem=   524288000 cpu:               2.6 elap:               0.4
 (Enter /home/ubuntu/g16/l701.exe)
 ... and contract with generalized density number  0.
 Compute integral second derivatives.
 Leave Link  701 at Mon Aug  3 15:43:55 2020, MaxMem=   524288000 cpu:               1.2 elap:               0.2
 (Enter /home/ubuntu/g16/l702.exe)
 L702 exits ... SP integral derivatives will be done elsewhere.
 Leave Link  702 at Mon Aug  3 15:43:55 2020, MaxMem=   524288000 cpu:               0.1 elap:               0.0
 (Enter /home/ubuntu/g16/l703.exe)
 Integral derivatives from FoFJK, PRISM(SPDF).
 Compute integral second derivatives, UseDBF=F ICtDFT=           0.
 Calling FoFJK, ICntrl=    100127 FMM=F ISym2X=1 I1Cent= 0 IOpClX= 1 NMat=1 NMatS=1 NMatT=0.
 FoFJK:  IHMeth= 1 ICntrl=  100127 DoSepK=F KAlg= 0 I1Cent=           0 FoldK=F
 IRaf=         0 NMat=       1 IRICut=       1 DoRegI=T DoRafI=F ISym2E= 1 IDoP0=0 IntGTp=1.
 FoFCou: FMM=F IPFlag=           0 FMFlag=      100000 FMFlg1=         800
         NFxFlg=           0 DoJE=F BraDBF=F KetDBF=F FulRan=T
         wScrn=  0.000000 ICntrl=    100127 IOpCl=  1 I1Cent=           0 NGrid=           0
         NMat0=    1 NMatS0=      1 NMatT0=    0 NMatD0=    1 NMtDS0=    0 NMtDT0=    0
 Petite list used in FoFCou.
 Leave Link  703 at Mon Aug  3 15:43:55 2020, MaxMem=   524288000 cpu:               4.9 elap:               0.7
 (Enter /home/ubuntu/g16/l716.exe)
 Dipole        = 1.36036559D-05-7.29203974D-01 2.84413533D-17
 Polarizability= 1.01702649D+01 4.14247920D-04 9.34254484D+00
                -1.08054736D-11 1.91879960D-11 8.90273015D+00
 Full mass-weighted force constant matrix:
 Low frequencies ---  -41.1136  -29.0859  -16.4356   -0.0023   -0.0019   -0.0015
 Low frequencies --- 1618.3821 3795.4613 3905.4027
 Diagonal vibrational polarizability:
        0.1070814       0.7409302       0.0000000
 Harmonic frequencies (cm**-1), IR intensities (KM/Mole), Raman scattering
 activities (A**4/AMU), depolarization ratios for plane and unpolarized
 incident light, reduced masses (AMU), force constants (mDyne/A),
 and normal coordinates:
                      1                      2                      3
                     A'                     A'                     A'
 Frequencies --   1618.3821              3795.4613              3905.4027
 Red. masses --      1.0828                 1.0450                 1.0821
 Frc consts  --      1.6710                 8.8697                 9.7243
 IR Inten    --     71.3742                 4.0576                60.6882
  Atom  AN      X      Y      Z        X      Y      Z        X      Y      Z
     1   8    -0.00  -0.07  -0.00    -0.00  -0.05  -0.00    -0.07   0.00   0.00
     2   1     0.43   0.56  -0.00    -0.58   0.39   0.00     0.56  -0.43  -0.00
     3   1    -0.43   0.56   0.00     0.59   0.40  -0.00     0.56   0.43  -0.00

 -------------------
 - Thermochemistry -
 -------------------
 Temperature   298.150 Kelvin.  Pressure   1.00000 Atm.
 Atom     1 has atomic number  8 and mass  15.99491
 Atom     2 has atomic number  1 and mass   1.00783
 Atom     3 has atomic number  1 and mass   1.00783
 Molecular mass:    18.01056 amu.
 Principal axes and moments of inertia in atomic units:
                           1         2         3
     Eigenvalues --     2.21691   4.20370   6.42060
           X            1.00000  -0.00016   0.00000
           Y            0.00016   1.00000  -0.00000
           Z           -0.00000   0.00000   1.00000
 This molecule is an asymmetric top.
 Rotational symmetry number  1.
 Rotational temperatures (Kelvin)     39.06974    20.60422    13.49000
 Rotational constants (GHZ):         814.08130   429.32226   281.08591
 Zero-point vibrational energy      55741.5 (Joules/Mol)
                                   13.32253 (Kcal/Mol)
 Vibrational temperatures:   2328.49  5460.82  5619.00
          (Kelvin)
 
 Zero-point correction=                           0.021231 (Hartree/Particle)
 Thermal correction to Energy=                    0.024066
 Thermal correction to Enthalpy=                  0.025011
 Thermal correction to Gibbs Free Energy=         0.002925
 Sum of electronic and zero-point Energies=            -76.423413
 Sum of electronic and thermal Energies=               -76.420577
 Sum of electronic and thermal Enthalpies=             -76.419633
 Sum of electronic and thermal Free Energies=          -76.441719
 
                     E (Thermal)             CV                S
                      KCal/Mol        Cal/Mol-Kelvin    Cal/Mol-Kelvin
 Total                   15.102              6.011             46.484
 Electronic               0.000              0.000              0.000
 Translational            0.889              2.981             34.608
 Rotational               0.889              2.981             11.868
 Vibrational             13.324              0.049              0.007
                       Q            Log10(Q)             Ln(Q)
 Total Bot       0.451607D-01         -1.345240         -3.097529
 Total V=0       0.263175D+09          8.420244         19.388328
 Vib (Bot)       0.171669D-09         -9.765307        -22.485451
 Vib (V=0)       0.100041D+01          0.000176          0.000406
 Electronic      0.100000D+01          0.000000          0.000000
 Translational   0.300431D+07          6.477745         14.915559
 Rotational      0.875635D+02          1.942323          4.472364
 
                                                        HOH_UB3LYP-aug-cc-pVDZ
                                                             IR Spectrum
 
     3   3                                                                      1                                                    
     9   7                                                                      6                                                    
     0   9                                                                      1                                                    
     5   5                                                                      8                                                    
 
     X   X                                                                      X                                                    
     X                                                                          X                                                    
     X                                                                          X                                                    
     X                                                                          X                                                    
     X                                                                          X                                                    
     X                                                                          X                                                    
     X                                                                          X                                                    
     X                                                                          X                                                    
     X                                                                          X                                                    
     X                                                                          X                                                    
     X                                                                          X                                                    
     X                                                                          X                                                    
     X                                                                          X                                                    
     X                                                                          X                                                    
     X                                                                          X                                                    
     X                                                                          X                                                    
     X                                                                          X                                                    
                                                                                X                                                    
                                                                                X                                                    
                                                                                X                                                    
 
 ***** Axes restored to original set *****
 -------------------------------------------------------------------
 Center     Atomic                   Forces (Hartrees/Bohr)
 Number     Number              X              Y              Z
 -------------------------------------------------------------------
      1        8          -0.000073283    0.000007819   -0.000115192
      2        1           0.000050655    0.000020141    0.000094399
      3        1           0.000022628   -0.000027960    0.000020793
 -------------------------------------------------------------------
 Cartesian Forces:  Max     0.000115192 RMS     0.000059916
 Force constants in Cartesian coordinates: 
                1             2             3             4             5 
      1  0.149664D+00
      2 -0.999580D-01  0.572811D+00
      3  0.186829D+00  0.168089D+00  0.402329D+00
      4 -0.829320D-01 -0.739113D-01 -0.178339D+00  0.790801D-01
      5 -0.438918D-01 -0.110003D+00 -0.135368D+00  0.627173D-01  0.128413D+00
      6 -0.160976D+00 -0.184407D+00 -0.369563D+00  0.165549D+00  0.176762D+00
      7 -0.667317D-01  0.173869D+00 -0.848921D-02  0.385193D-02 -0.188255D-01
      8  0.143850D+00 -0.462809D+00 -0.327217D-01  0.111940D-01 -0.184104D-01
      9 -0.258530D-01  0.163177D-01 -0.327663D-01  0.127900D-01 -0.413939D-01
                6             7             8             9 
      6  0.372626D+00
      7 -0.457381D-02  0.628797D-01
      8  0.764553D-02 -0.155044D+00  0.481219D+00
      9 -0.306331D-02  0.130630D-01  0.250762D-01  0.358296D-01
 FormGI is forming the generalized inverse of G from B-inverse, IUseBI=4.
 Force constants in internal coordinates: 
                1             2             3 
      1  0.532927D+00
      2 -0.629799D-02  0.532663D+00
      3  0.294747D-01  0.294781D-01  0.157224D+00
 Leave Link  716 at Mon Aug  3 15:43:55 2020, MaxMem=   524288000 cpu:               0.2 elap:               0.0
 (Enter /home/ubuntu/g16/l103.exe)

 GradGradGradGradGradGradGradGradGradGradGradGradGradGradGradGradGradGrad
 Berny optimization.
 Red2BG is reusing G-inverse.
 Internal  Forces:  Max     0.000106236 RMS     0.000069280
 Search for a local minimum.
 Step number   1 out of a maximum of    2
 All quantities printed in internal units (Hartrees-Bohrs-Radians)
 Second derivative matrix not updated -- analytic derivatives used.
 The second derivative matrix:
                          R1        R2        A1
           R1           0.53293
           R2          -0.00630   0.53266
           A1           0.02947   0.02948   0.15722
 ITU=  0
     Eigenvalues ---    0.15258   0.53114   0.53909
 Angle between quadratic step and forces=  33.69 degrees.
 Linear search not attempted -- first point.
 Iteration  1 RMS(Cart)=  0.00017308 RMS(Int)=  0.00000003
 Iteration  2 RMS(Cart)=  0.00000003 RMS(Int)=  0.00000000
 ITry= 1 IFail=0 DXMaxC= 1.79D-04 DCOld= 1.00D+10 DXMaxT= 3.00D-01 DXLimC= 3.00D+00 Rises=F
 ClnCor:  largest displacement from symmetrization is 9.93D-16 for atom     3.
 Variable       Old X    -DE/DX   Delta X   Delta X   Delta X     New X
                                 (Linear)    (Quad)   (Total)
    R1        1.82311   0.00011   0.00000   0.00022   0.00022   1.82333
    R2        1.82325   0.00003   0.00000   0.00008   0.00008   1.82333
    A1        1.82848  -0.00004   0.00000  -0.00034  -0.00034   1.82814
         Item               Value     Threshold  Converged?
 Maximum Force            0.000106     0.000450     YES
 RMS     Force            0.000069     0.000300     YES
 Maximum Displacement     0.000179     0.001800     YES
 RMS     Displacement     0.000173     0.001200     YES
 Predicted change in Energy=-2.063817D-08
 Optimization completed.
    -- Stationary point found.
                           ----------------------------
                           !   Optimized Parameters   !
                           ! (Angstroms and Degrees)  !
 --------------------------                            --------------------------
 ! Name  Definition              Value          Derivative Info.                !
 --------------------------------------------------------------------------------
 ! R1    R(1,2)                  0.9647         -DE/DX =    0.0001              !
 ! R2    R(1,3)                  0.9648         -DE/DX =    0.0                 !
 ! A1    A(2,1,3)              104.7641         -DE/DX =    0.0                 !
 --------------------------------------------------------------------------------
 GradGradGradGradGradGradGradGradGradGradGradGradGradGradGradGradGradGrad

 Leave Link  103 at Mon Aug  3 15:43:55 2020, MaxMem=   524288000 cpu:               0.0 elap:               0.0
 (Enter /home/ubuntu/g16/l9999.exe)

 ----------------------------------------------------------------------

 Electric dipole moment (input orientation):
 (Debye = 10**-18 statcoulomb cm , SI units = C m)
                  (au)            (Debye)         (10**-30 SI)
   Tot        0.729204D+00      0.185345D+01      0.618245D+01
   x          0.420447D+00      0.106867D+01      0.356470D+01
   y         -0.330998D+00     -0.841313D+00     -0.280632D+01
   z          0.495381D+00      0.125913D+01      0.420002D+01

 Dipole polarizability, Alpha (input orientation).
 (esu units = cm**3 , SI units = C**2 m**2 J**-1)
 Alpha(0;0):
               (au)            (10**-24 esu)      (10**-40 SI)
   iso        0.947185D+01      0.140358D+01      0.156170D+01
   aniso      0.111472D+01      0.165185D+00      0.183793D+00
   xx         0.905011D+01      0.134109D+01      0.149216D+01
   yx        -0.827405D-01     -0.122609D-01     -0.136421D-01
   yy         0.989409D+01      0.146615D+01      0.163132D+01
   zx         0.192898D+00      0.285845D-01      0.318045D-01
   zy         0.438256D+00      0.649428D-01      0.722587D-01
   zz         0.947134D+01      0.140351D+01      0.156161D+01

 ----------------------------------------------------------------------

 Dipole orientation:
     8          3.12905267          6.38916541          7.61270172
     1          2.90665845          7.81605384          8.72547360
     1          3.35145329          4.96223595          8.72564051

 Electric dipole moment (dipole orientation):
 (Debye = 10**-18 statcoulomb cm , SI units = C m)
                  (au)            (Debye)         (10**-30 SI)
   Tot        0.729204D+00      0.185345D+01      0.618245D+01
   x          0.000000D+00      0.000000D+00      0.000000D+00
   y          0.000000D+00      0.000000D+00      0.000000D+00
   z          0.729204D+00      0.185345D+01      0.618245D+01

 Dipole polarizability, Alpha (dipole orientation).
 (esu units = cm**3 , SI units = C**2 m**2 J**-1)
 Alpha(0;0):
               (au)            (10**-24 esu)      (10**-40 SI)
   iso        0.947185D+01      0.140358D+01      0.156170D+01
   aniso      0.111472D+01      0.165185D+00      0.183793D+00
   xx         0.893279D+01      0.132370D+01      0.147282D+01
   yx        -0.192872D+00     -0.285807D-01     -0.318003D-01
   yy         0.101402D+02      0.150262D+01      0.167189D+01
   zx         0.614163D-04      0.910096D-05      0.101262D-04
   zy        -0.394049D-03     -0.583920D-04     -0.649699D-04
   zz         0.934254D+01      0.138442D+01      0.154038D+01

 ----------------------------------------------------------------------
 1\1\GINC-192-168-10-17\Freq\UB3LYP\Aug-CC-pVDZ\H2O1\UBUNTU\03-Aug-2020
 \0\\#P Geom=AllCheck Guess=TCheck SCRF=Check GenChk UB3LYP/Aug-CC-pVDZ
  Freq\\HOH_UB3LYP-aug-cc-pVDZ\\0,1\O,4.1777008914,1.3956466749,3.31669
 40068\H,4.5405126595,1.7724505442,4.1273270614\H,4.4939864491,0.484202
 7809,3.3061789317\\Version=ES64L-G16RevA.03\State=1-A'\HF=-76.4446436\
 S2=0.\S2-1=0.\S2A=0.\RMSD=1.702e-09\RMSF=5.992e-05\ZeroPoint=0.0212308
 \Thermal=0.0240664\Dipole=0.4204474,-0.3309982,0.4953813\DipoleDeriv=-
 0.5517997,-0.0772599,0.1243138,-0.077242,-0.4783447,-0.0238538,0.12432
 41,-0.0238829,-0.465975,0.2735156,0.0099111,-0.0826709,0.0031685,0.291
 1677,-0.0159156,-0.086571,-0.0049009,0.1833763,0.2782841,0.0673488,-0.
 0416429,0.0740736,0.187177,0.0397694,-0.0377531,0.0287839,0.2825987\Po
 lar=9.0501093,-0.0827405,9.8940914,0.1928977,0.438256,9.4713392\Quadru
 pole=-0.8141282,0.7996698,0.0144585,-0.1899443,0.4182681,0.8101584\PG=
 CS [SG(H2O1)]\NImag=0\\0.14966371,-0.09995800,0.57281125,0.18682853,0.
 16808945,0.40232930,-0.08293203,-0.07391132,-0.17833931,0.07908010,-0.
 04389180,-0.11000264,-0.13536770,0.06271731,0.12841303,-0.16097553,-0.
 18440711,-0.36956300,0.16554934,0.17676158,0.37262630,-0.06673167,0.17
 386932,-0.00848921,0.00385193,-0.01882551,-0.00457381,0.06287974,0.143
 84980,-0.46280861,-0.03272175,0.01119402,-0.01841039,0.00764553,-0.155
 04382,0.48121900,-0.02585300,0.01631766,-0.03276631,0.01278997,-0.0413
 9388,-0.00306331,0.01306303,0.02507621,0.03582961\\0.00007328,-0.00000
 782,0.00011519,-0.00005065,-0.00002014,-0.00009440,-0.00002263,0.00002
 796,-0.00002079\\\@


 I LOVE MANKIND - IT'S PEOPLE I CAN'T STAND.
     -- LINUS OF PEANUTS
 Job cpu time:       0 days  0 hours  0 minutes 27.4 seconds.
 Elapsed time:       0 days  0 hours  0 minutes  3.9 seconds.
 File lengths (MBytes):  RWF=      6 Int=      0 D2E=      0 Chk=      1 Scr=      1
 Normal termination of Gaussian 16 at Mon Aug  3 15:43:56 2020.
