 Entering Gaussian System, Link 0=/home/ubuntu/g16/g16
 Input=HOOCH_UB3LYP-aug-cc-pVDZ-Opt.gjf
 Output=HOOCH_UB3LYP-aug-cc-pVDZ-Opt.log
 Initial command:
 /home/ubuntu/g16/l1.exe "/home/ubuntu/g16/Gau-9715.inp" -scrdir="/home/ubuntu/g16/"
 Entering Link 1 = /home/ubuntu/g16/l1.exe PID=      9717.
  
 Copyright (c) 1988,1990,1992,1993,1995,1998,2003,2009,2016,
            Gaussian, Inc.  All Rights Reserved.
  
 This is part of the Gaussian(R) 16 program.  It is based on
 the Gaussian(R) 09 system (copyright 2009, Gaussian, Inc.),
 the Gaussian(R) 03 system (copyright 2003, Gaussian, Inc.),
 the Gaussian(R) 98 system (copyright 1998, Gaussian, Inc.),
 the Gaussian(R) 94 system (copyright 1995, Gaussian, Inc.),
 the Gaussian 92(TM) system (copyright 1992, Gaussian, Inc.),
 the Gaussian 90(TM) system (copyright 1990, Gaussian, Inc.),
 the Gaussian 88(TM) system (copyright 1988, Gaussian, Inc.),
 the Gaussian 86(TM) system (copyright 1986, Carnegie Mellon
 University), and the Gaussian 82(TM) system (copyright 1983,
 Carnegie Mellon University). Gaussian is a federally registered
 trademark of Gaussian, Inc.
  
 This software contains proprietary and confidential information,
 including trade secrets, belonging to Gaussian, Inc.
  
 This software is provided under written license and may be
 used, copied, transmitted, or stored only in accord with that
 written license.
  
 The following legend is applicable only to US Government
 contracts under FAR:
  
                    RESTRICTED RIGHTS LEGEND
  
 Use, reproduction and disclosure by the US Government is
 subject to restrictions as set forth in subparagraphs (a)
 and (c) of the Commercial Computer Software - Restricted
 Rights clause in FAR 52.227-19.
  
 Gaussian, Inc.
 340 Quinnipiac St., Bldg. 40, Wallingford CT 06492
  
  
 ---------------------------------------------------------------
 Warning -- This program may not be used in any manner that
 competes with the business of Gaussian, Inc. or will provide
 assistance to any competitor of Gaussian, Inc.  The licensee
 of this program is prohibited from giving any competitor of
 Gaussian, Inc. access to this program.  By using this program,
 the user acknowledges that Gaussian, Inc. is engaged in the
 business of creating and licensing software in the field of
 computational chemistry and represents and warrants to the
 licensee that it is not a competitor of Gaussian, Inc. and that
 it will not use this program in any manner prohibited above.
 ---------------------------------------------------------------
  

 Cite this work as:
 Gaussian 16, Revision A.03,
 M. J. Frisch, G. W. Trucks, H. B. Schlegel, G. E. Scuseria, 
 M. A. Robb, J. R. Cheeseman, G. Scalmani, V. Barone, 
 G. A. Petersson, H. Nakatsuji, X. Li, M. Caricato, A. V. Marenich, 
 J. Bloino, B. G. Janesko, R. Gomperts, B. Mennucci, H. P. Hratchian, 
 J. V. Ortiz, A. F. Izmaylov, J. L. Sonnenberg, D. Williams-Young, 
 F. Ding, F. Lipparini, F. Egidi, J. Goings, B. Peng, A. Petrone, 
 T. Henderson, D. Ranasinghe, V. G. Zakrzewski, J. Gao, N. Rega, 
 G. Zheng, W. Liang, M. Hada, M. Ehara, K. Toyota, R. Fukuda, 
 J. Hasegawa, M. Ishida, T. Nakajima, Y. Honda, O. Kitao, H. Nakai, 
 T. Vreven, K. Throssell, J. A. Montgomery, Jr., J. E. Peralta, 
 F. Ogliaro, M. J. Bearpark, J. J. Heyd, E. N. Brothers, K. N. Kudin, 
 V. N. Staroverov, T. A. Keith, R. Kobayashi, J. Normand, 
 K. Raghavachari, A. P. Rendell, J. C. Burant, S. S. Iyengar, 
 J. Tomasi, M. Cossi, J. M. Millam, M. Klene, C. Adamo, R. Cammi, 
 J. W. Ochterski, R. L. Martin, K. Morokuma, O. Farkas, 
 J. B. Foresman, and D. J. Fox, Gaussian, Inc., Wallingford CT, 2016.
 
 ******************************************
 Gaussian 16:  ES64L-G16RevA.03 25-Dec-2016
                 3-Aug-2020 
 ******************************************
 %chk=HOOCH_UB3LYP-aug-cc-pVDZ-Opt.chk
 %mem=500MW
 %nproc=7
 Will use up to    7 processors via shared memory.
 ----------------------------------------------------------------------
 #p opt=(maxcycles=777) freq ub3lyp/aug-cc-pVDZ pop=(Bonding,AllOrbital
 s,mk,no,nboread)
 ----------------------------------------------------------------------
 1/6=777,18=20,19=15,26=3,38=1/1,3;
 2/9=110,12=2,17=6,18=5,40=1/2;
 3/5=16,7=10,11=2,25=1,30=1,71=1,74=-5,116=2/1,2,3;
 4//1;
 5/5=2,38=5/2;
 6/7=2,8=2,9=2,10=2,15=8,20=1,22=-1,27=20,28=1,31=1,40=2,96=-1/1,2,7;
 7//1,2,3,16;
 1/6=777,18=20,19=15,26=3/3(2);
 2/9=110/2;
 99//99;
 2/9=110/2;
 3/5=16,7=10,11=2,25=1,30=1,71=1,74=-5,116=2/1,2,3;
 4/5=5,16=3,69=1/1;
 5/5=2,38=5/2;
 7//1,2,3,16;
 1/6=777,18=20,19=15,26=3/3(-5);
 2/9=110/2;
 6/7=2,8=2,9=2,10=2,15=8,19=2,20=1,22=-1,27=20,28=1,31=1,40=2,96=-1/1,2,7;
 99/9=1/99;
 Leave Link    1 at Mon Aug  3 15:46:44 2020, MaxMem=   524288000 cpu:               0.3 elap:               0.0
 (Enter /home/ubuntu/g16/l101.exe)
 ------------------------
 HOOCH_UB3LYP-aug-cc-pVDZ
 ------------------------
 Symbolic Z-matrix:
 Charge =  0 Multiplicity = 1
 C                     4.6192    0.0991    3.288 
 O                     5.3196   -0.3669    4.1586 
 O                     4.1825    1.3885    3.3204 
 H                     4.5393    1.7843    4.1322 
 H                     4.2677   -0.4156    2.4182 
 
 Add atom      1 valence  3 ND=      2 dihedral       2      1      3      5
 ITRead=  0  0  0  0  0
 MicOpt= -1 -1 -1 -1 -1
 NAtoms=      5 NQM=        5 NQMF=       0 NMMI=      0 NMMIF=      0
                NMic=       0 NMicF=      0.
                    Isotopes and Nuclear Properties:
 (Nuclear quadrupole moments (NQMom) in fm**2, nuclear magnetic moments (NMagM)
  in nuclear magnetons)

  Atom         1           2           3           4           5
 IAtWgt=          12          16          16           1           1
 AtmWgt=  12.0000000  15.9949146  15.9949146   1.0078250   1.0078250
 NucSpn=           0           0           0           1           1
 AtZEff=  -0.0000000  -0.0000000  -0.0000000  -0.0000000  -0.0000000
 NQMom=    0.0000000   0.0000000   0.0000000   0.0000000   0.0000000
 NMagM=    0.0000000   0.0000000   0.0000000   2.7928460   2.7928460
 AtZNuc=   6.0000000   8.0000000   8.0000000   1.0000000   1.0000000
 Leave Link  101 at Mon Aug  3 15:46:44 2020, MaxMem=   524288000 cpu:               1.2 elap:               0.2
 (Enter /home/ubuntu/g16/l103.exe)

 GradGradGradGradGradGradGradGradGradGradGradGradGradGradGradGradGradGrad
 Berny optimization.
 Initialization pass.
                           ----------------------------
                           !    Initial Parameters    !
                           ! (Angstroms and Degrees)  !
 --------------------------                            --------------------------
 ! Name  Definition              Value          Derivative Info.                !
 --------------------------------------------------------------------------------
 ! R1    R(1,2)                  1.2106         estimate D2E/DX2                !
 ! R2    R(1,3)                  1.3617         estimate D2E/DX2                !
 ! R3    R(1,5)                  1.0701         estimate D2E/DX2                !
 ! R4    R(3,4)                  0.9711         estimate D2E/DX2                !
 ! A1    A(2,1,3)              122.2014         estimate D2E/DX2                !
 ! A2    A(2,1,5)              126.1169         estimate D2E/DX2                !
 ! A3    A(3,1,5)              111.6817         estimate D2E/DX2                !
 ! A4    A(1,3,4)              106.7382         estimate D2E/DX2                !
 ! D1    D(2,1,3,4)             -0.1128         estimate D2E/DX2                !
 ! D2    D(2,1,3,5)            179.948          estimate D2E/DX2                !
 ! D3    D(5,1,3,4)            179.9391         estimate D2E/DX2                !
 --------------------------------------------------------------------------------
 Trust Radius=3.00D-01 FncErr=1.00D-07 GrdErr=1.00D-06 EigMax=2.50D+02 EigMin=1.00D-04
 Number of steps in this run=    100 maximum allowed number of steps=    100.
 GradGradGradGradGradGradGradGradGradGradGradGradGradGradGradGradGradGrad

 Leave Link  103 at Mon Aug  3 15:46:44 2020, MaxMem=   524288000 cpu:               0.0 elap:               0.0
 (Enter /home/ubuntu/g16/l202.exe)
                          Input orientation:                          
 ---------------------------------------------------------------------
 Center     Atomic      Atomic             Coordinates (Angstroms)
 Number     Number       Type             X           Y           Z
 ---------------------------------------------------------------------
      1          6           0        4.619200    0.099100    3.288000
      2          8           0        5.319600   -0.366900    4.158600
      3          8           0        4.182500    1.388500    3.320400
      4          1           0        4.539300    1.784300    4.132200
      5          1           0        4.267700   -0.415600    2.418200
 ---------------------------------------------------------------------
                    Distance matrix (angstroms):
                    1          2          3          4          5
     1  C    0.000000
     2  O    1.210645   0.000000
     3  O    1.361730   2.253221   0.000000
     4  H    1.886520   2.288499   0.971073   0.000000
     5  H    1.070056   2.034172   2.018911   2.801985   0.000000
 Stoichiometry    CH2O2
 Framework group  C1[X(CH2O2)]
 Deg. of freedom     9
 Full point group                 C1      NOp   1
 Largest Abelian subgroup         C1      NOp   1
 Largest concise Abelian subgroup C1      NOp   1
                         Standard orientation:                         
 ---------------------------------------------------------------------
 Center     Atomic      Atomic             Coordinates (Angstroms)
 Number     Number       Type             X           Y           Z
 ---------------------------------------------------------------------
      1          6           0       -0.139245    0.424197    0.000247
      2          8           0       -1.126904   -0.275938   -0.000111
      3          8           0        1.119135   -0.096178   -0.000205
      4          1           0        1.022212   -1.062402    0.001015
      5          1           0       -0.124589    1.494153    0.000031
 ---------------------------------------------------------------------
 Rotational constants (GHZ):          73.6324015          12.1268141          10.4120185
 Leave Link  202 at Mon Aug  3 15:46:44 2020, MaxMem=   524288000 cpu:               0.0 elap:               0.0
 (Enter /home/ubuntu/g16/l301.exe)
 Standard basis: Aug-CC-pVDZ (5D, 7F)
 Ernie: Thresh=  0.10000D-02 Tol=  0.10000D-05 Strict=F.
 Ernie:  6 primitive shells out of 89 were deleted.
 There are    93 symmetry adapted cartesian basis functions of A   symmetry.
 There are    87 symmetry adapted basis functions of A   symmetry.
    87 basis functions,   151 primitive gaussians,    93 cartesian basis functions
    12 alpha electrons       12 beta electrons
       nuclear repulsion energy        69.8912240210 Hartrees.
 IExCor=  402 DFT=T Ex+Corr=B3LYP ExCW=0 ScaHFX=  0.200000
 ScaDFX=  0.800000  0.720000  1.000000  0.810000 ScalE2=  1.000000  1.000000
 IRadAn=      5 IRanWt=     -1 IRanGd=            0 ICorTp=0 IEmpDi=  4
 NAtoms=    5 NActive=    5 NUniq=    5 SFac= 1.00D+00 NAtFMM=   60 NAOKFM=F Big=F
 Integral buffers will be    131072 words long.
 Raffenetti 2 integral format.
 Two-electron integral symmetry is turned on.
 Leave Link  301 at Mon Aug  3 15:46:44 2020, MaxMem=   524288000 cpu:               0.2 elap:               0.0
 (Enter /home/ubuntu/g16/l302.exe)
 NPDir=0 NMtPBC=     1 NCelOv=     1 NCel=       1 NClECP=     1 NCelD=      1
         NCelK=      1 NCelE2=     1 NClLst=     1 CellRange=     0.0.
 One-electron integrals computed using PRISM.
 One-electron integral symmetry used in STVInt
 NBasis=    87 RedAO= T EigKep=  7.20D-04  NBF=    87
 NBsUse=    87 1.00D-06 EigRej= -1.00D+00 NBFU=    87
 Precomputing XC quadrature grid using
 IXCGrd= 4 IRadAn=           5 IRanWt=          -1 IRanGd=           0 AccXCQ= 0.00D+00.
 Generated NRdTot=       0 NPtTot=           0 NUsed=           0 NTot=          32
 NSgBfM=    93    93    93    93    93 MxSgAt=     5 MxSgA2=     5.
 Leave Link  302 at Mon Aug  3 15:46:44 2020, MaxMem=   524288000 cpu:               1.1 elap:               0.2
 (Enter /home/ubuntu/g16/l303.exe)
 DipDrv:  MaxL=1.
 Leave Link  303 at Mon Aug  3 15:46:44 2020, MaxMem=   524288000 cpu:               0.2 elap:               0.0
 (Enter /home/ubuntu/g16/l401.exe)
 ExpMin= 2.97D-02 ExpMax= 1.17D+04 ExpMxC= 4.01D+02 IAcc=3 IRadAn=         5 AccDes= 0.00D+00
 Harris functional with IExCor=  402 and IRadAn=       5 diagonalized for initial guess.
 HarFok:  IExCor=  402 AccDes= 0.00D+00 IRadAn=         5 IDoV= 1 UseB2=F ITyADJ=14
 ICtDFT=  3500011 ScaDFX=  1.000000  1.000000  1.000000  1.000000
 FoFCou: FMM=F IPFlag=           0 FMFlag=      100000 FMFlg1=           0
         NFxFlg=           0 DoJE=T BraDBF=F KetDBF=T FulRan=T
         wScrn=  0.000000 ICntrl=       500 IOpCl=  0 I1Cent=   200000004 NGrid=           0
         NMat0=    1 NMatS0=      1 NMatT0=    0 NMatD0=    1 NMtDS0=    0 NMtDT0=    0
 Petite list used in FoFCou.
 Harris En= -189.803124118262    
 JPrj=0 DoOrth=F DoCkMO=F.
 Initial guess <Sx>= 0.0000 <Sy>= 0.0000 <Sz>= 0.0000 <S**2>=-0.0000 S=-0.0000
 Leave Link  401 at Mon Aug  3 15:46:45 2020, MaxMem=   524288000 cpu:               2.9 elap:               0.4
 (Enter /home/ubuntu/g16/l502.exe)
 Keep R1 and R2 ints in memory in canonical form, NReq=21077098.
 FoFCou: FMM=F IPFlag=           0 FMFlag=           0 FMFlg1=           0
         NFxFlg=           0 DoJE=F BraDBF=F KetDBF=F FulRan=T
         wScrn=  0.000000 ICntrl=       600 IOpCl=  0 I1Cent=           0 NGrid=           0
         NMat0=    1 NMatS0=   3828 NMatT0=    0 NMatD0=    1 NMtDS0=    0 NMtDT0=    0
 Symmetry not used in FoFCou.
 Two-electron integral symmetry not used.
 UHF open shell SCF:
 Using DIIS extrapolation, IDIIS=  1040.
 NGot=   524288000 LenX=   509611640 LenY=   509602550
 Requested convergence on RMS density matrix=1.00D-08 within 128 cycles.
 Requested convergence on MAX density matrix=1.00D-06.
 Requested convergence on             energy=1.00D-06.
 No special actions if energy rises.

 Cycle   1  Pass 1  IDiag  1:
 E= -189.709144873849    
 DIIS: error= 3.60D-02 at cycle   1 NSaved=   1.
 NSaved= 1 IEnMin= 1 EnMin= -189.709144873849     IErMin= 1 ErrMin= 3.60D-02
 ErrMax= 3.60D-02  0.00D+00 EMaxC= 1.00D-01 BMatC= 4.57D-01 BMatP= 4.57D-01
 IDIUse=3 WtCom= 6.40D-01 WtEn= 3.60D-01
 Coeff-Com:  0.100D+01
 Coeff-En:   0.100D+01
 Coeff:      0.100D+01
 Gap=     0.175 Goal=   None    Shift=    0.000
 Gap=     0.175 Goal=   None    Shift=    0.000
 GapD=    0.175 DampG=1.000 DampE=0.500 DampFc=0.5000 IDamp=-1.
 Damping current iteration by 5.00D-01
 RMSDP=6.74D-03 MaxDP=1.94D-01              OVMax= 2.44D-01

 Cycle   2  Pass 1  IDiag  1:
 E= -189.712573001111     Delta-E=       -0.003428127263 Rises=F Damp=T
 DIIS: error= 1.52D-02 at cycle   2 NSaved=   2.
 NSaved= 2 IEnMin= 2 EnMin= -189.712573001111     IErMin= 2 ErrMin= 1.52D-02
 ErrMax= 1.52D-02  0.00D+00 EMaxC= 1.00D-01 BMatC= 1.10D-01 BMatP= 4.57D-01
 IDIUse=3 WtCom= 8.48D-01 WtEn= 1.52D-01
 Coeff-Com:  0.307D+00 0.693D+00
 Coeff-En:   0.485D+00 0.515D+00
 Coeff:      0.334D+00 0.666D+00
 Gap=     0.287 Goal=   None    Shift=    0.000
 Gap=     0.287 Goal=   None    Shift=    0.000
 RMSDP=2.55D-03 MaxDP=5.13D-02 DE=-3.43D-03 OVMax= 1.69D-01

 Cycle   3  Pass 1  IDiag  1:
 E= -189.785029147604     Delta-E=       -0.072456146493 Rises=F Damp=F
 DIIS: error= 8.91D-03 at cycle   3 NSaved=   3.
 NSaved= 3 IEnMin= 3 EnMin= -189.785029147604     IErMin= 3 ErrMin= 8.91D-03
 ErrMax= 8.91D-03  0.00D+00 EMaxC= 1.00D-01 BMatC= 4.68D-02 BMatP= 1.10D-01
 IDIUse=3 WtCom= 9.11D-01 WtEn= 8.91D-02
 Coeff-Com:  0.166D+00 0.419D+00 0.415D+00
 Coeff-En:   0.000D+00 0.000D+00 0.100D+01
 Coeff:      0.151D+00 0.382D+00 0.467D+00
 Gap=     0.273 Goal=   None    Shift=    0.000
 Gap=     0.273 Goal=   None    Shift=    0.000
 RMSDP=1.05D-03 MaxDP=3.00D-02 DE=-7.25D-02 OVMax= 5.10D-02

 Cycle   4  Pass 1  IDiag  1:
 E= -189.792680097819     Delta-E=       -0.007650950216 Rises=F Damp=F
 DIIS: error= 4.51D-03 at cycle   4 NSaved=   4.
 NSaved= 4 IEnMin= 4 EnMin= -189.792680097819     IErMin= 4 ErrMin= 4.51D-03
 ErrMax= 4.51D-03  0.00D+00 EMaxC= 1.00D-01 BMatC= 7.92D-03 BMatP= 4.68D-02
 IDIUse=3 WtCom= 9.55D-01 WtEn= 4.51D-02
 Coeff-Com:  0.300D-01 0.911D-01 0.296D+00 0.583D+00
 Coeff-En:   0.000D+00 0.000D+00 0.168D+00 0.832D+00
 Coeff:      0.286D-01 0.870D-01 0.290D+00 0.594D+00
 Gap=     0.274 Goal=   None    Shift=    0.000
 Gap=     0.274 Goal=   None    Shift=    0.000
 RMSDP=3.60D-04 MaxDP=9.99D-03 DE=-7.65D-03 OVMax= 1.49D-02

 Cycle   5  Pass 1  IDiag  1:
 E= -189.794088383928     Delta-E=       -0.001408286109 Rises=F Damp=F
 DIIS: error= 6.87D-04 at cycle   5 NSaved=   5.
 NSaved= 5 IEnMin= 5 EnMin= -189.794088383928     IErMin= 5 ErrMin= 6.87D-04
 ErrMax= 6.87D-04  0.00D+00 EMaxC= 1.00D-01 BMatC= 2.70D-04 BMatP= 7.92D-03
 IDIUse=3 WtCom= 9.93D-01 WtEn= 6.87D-03
 Coeff-Com:  0.929D-03 0.563D-02 0.953D-01 0.276D+00 0.622D+00
 Coeff-En:   0.000D+00 0.000D+00 0.000D+00 0.000D+00 0.100D+01
 Coeff:      0.923D-03 0.559D-02 0.946D-01 0.275D+00 0.624D+00
 Gap=     0.275 Goal=   None    Shift=    0.000
 Gap=     0.275 Goal=   None    Shift=    0.000
 RMSDP=8.26D-05 MaxDP=1.66D-03 DE=-1.41D-03 OVMax= 2.51D-03

 Cycle   6  Pass 1  IDiag  1:
 E= -189.794149025669     Delta-E=       -0.000060641741 Rises=F Damp=F
 DIIS: error= 1.23D-04 at cycle   6 NSaved=   6.
 NSaved= 6 IEnMin= 6 EnMin= -189.794149025669     IErMin= 6 ErrMin= 1.23D-04
 ErrMax= 1.23D-04  0.00D+00 EMaxC= 1.00D-01 BMatC= 8.06D-06 BMatP= 2.70D-04
 IDIUse=3 WtCom= 9.99D-01 WtEn= 1.23D-03
 Coeff-Com: -0.662D-03-0.295D-02 0.206D-01 0.657D-01 0.225D+00 0.693D+00
 Coeff-En:   0.000D+00 0.000D+00 0.000D+00 0.000D+00 0.000D+00 0.100D+01
 Coeff:     -0.662D-03-0.295D-02 0.205D-01 0.656D-01 0.225D+00 0.693D+00
 Gap=     0.275 Goal=   None    Shift=    0.000
 Gap=     0.275 Goal=   None    Shift=    0.000
 RMSDP=1.21D-05 MaxDP=2.21D-04 DE=-6.06D-05 OVMax= 3.57D-04

 Cycle   7  Pass 1  IDiag  1:
 E= -189.794150704466     Delta-E=       -0.000001678797 Rises=F Damp=F
 DIIS: error= 1.65D-05 at cycle   7 NSaved=   7.
 NSaved= 7 IEnMin= 7 EnMin= -189.794150704466     IErMin= 7 ErrMin= 1.65D-05
 ErrMax= 1.65D-05  0.00D+00 EMaxC= 1.00D-01 BMatC= 1.59D-07 BMatP= 8.06D-06
 IDIUse=1 WtCom= 1.00D+00 WtEn= 0.00D+00
 Coeff-Com:  0.922D-05-0.948D-03 0.271D-02 0.734D-02 0.352D-01 0.124D+00
 Coeff-Com:  0.831D+00
 Coeff:      0.922D-05-0.948D-03 0.271D-02 0.734D-02 0.352D-01 0.124D+00
 Coeff:      0.831D+00
 Gap=     0.275 Goal=   None    Shift=    0.000
 Gap=     0.275 Goal=   None    Shift=    0.000
 RMSDP=2.16D-06 MaxDP=2.71D-05 DE=-1.68D-06 OVMax= 7.36D-05

 Cycle   8  Pass 1  IDiag  1:
 E= -189.794150738226     Delta-E=       -0.000000033760 Rises=F Damp=F
 DIIS: error= 3.51D-06 at cycle   8 NSaved=   8.
 NSaved= 8 IEnMin= 8 EnMin= -189.794150738226     IErMin= 8 ErrMin= 3.51D-06
 ErrMax= 3.51D-06  0.00D+00 EMaxC= 1.00D-01 BMatC= 5.78D-09 BMatP= 1.59D-07
 IDIUse=1 WtCom= 1.00D+00 WtEn= 0.00D+00
 Coeff-Com:  0.524D-04-0.499D-04-0.409D-03-0.180D-02-0.452D-02-0.198D-01
 Coeff-Com:  0.117D+00 0.910D+00
 Coeff:      0.524D-04-0.499D-04-0.409D-03-0.180D-02-0.452D-02-0.198D-01
 Coeff:      0.117D+00 0.910D+00
 Gap=     0.275 Goal=   None    Shift=    0.000
 Gap=     0.275 Goal=   None    Shift=    0.000
 RMSDP=4.33D-07 MaxDP=9.18D-06 DE=-3.38D-08 OVMax= 1.99D-05

 Cycle   9  Pass 1  IDiag  1:
 E= -189.794150739616     Delta-E=       -0.000000001390 Rises=F Damp=F
 DIIS: error= 3.95D-07 at cycle   9 NSaved=   9.
 NSaved= 9 IEnMin= 9 EnMin= -189.794150739616     IErMin= 9 ErrMin= 3.95D-07
 ErrMax= 3.95D-07  0.00D+00 EMaxC= 1.00D-01 BMatC= 9.06D-11 BMatP= 5.78D-09
 IDIUse=1 WtCom= 1.00D+00 WtEn= 0.00D+00
 Coeff-Com:  0.521D-05 0.866D-05-0.826D-04-0.376D-03-0.137D-02-0.487D-02
 Coeff-Com: -0.355D-02 0.120D+00 0.890D+00
 Coeff:      0.521D-05 0.866D-05-0.826D-04-0.376D-03-0.137D-02-0.487D-02
 Coeff:     -0.355D-02 0.120D+00 0.890D+00
 Gap=     0.275 Goal=   None    Shift=    0.000
 Gap=     0.275 Goal=   None    Shift=    0.000
 RMSDP=6.04D-08 MaxDP=9.96D-07 DE=-1.39D-09 OVMax= 1.80D-06

 Cycle  10  Pass 1  IDiag  1:
 E= -189.794150739638     Delta-E=       -0.000000000023 Rises=F Damp=F
 DIIS: error= 8.74D-08 at cycle  10 NSaved=  10.
 NSaved=10 IEnMin=10 EnMin= -189.794150739638     IErMin=10 ErrMin= 8.74D-08
 ErrMax= 8.74D-08  0.00D+00 EMaxC= 1.00D-01 BMatC= 4.02D-12 BMatP= 9.06D-11
 IDIUse=1 WtCom= 1.00D+00 WtEn= 0.00D+00
 Coeff-Com: -0.541D-06 0.249D-05 0.346D-05-0.943D-05-0.111D-03-0.174D-03
 Coeff-Com: -0.457D-02-0.815D-02 0.134D+00 0.879D+00
 Coeff:     -0.541D-06 0.249D-05 0.346D-05-0.943D-05-0.111D-03-0.174D-03
 Coeff:     -0.457D-02-0.815D-02 0.134D+00 0.879D+00
 Gap=     0.275 Goal=   None    Shift=    0.000
 Gap=     0.275 Goal=   None    Shift=    0.000
 RMSDP=1.06D-08 MaxDP=1.44D-07 DE=-2.27D-11 OVMax= 3.07D-07

 Cycle  11  Pass 1  IDiag  1:
 E= -189.794150739637     Delta-E=        0.000000000001 Rises=F Damp=F
 DIIS: error= 1.55D-08 at cycle  11 NSaved=  11.
 NSaved=11 IEnMin=10 EnMin= -189.794150739638     IErMin=11 ErrMin= 1.55D-08
 ErrMax= 1.55D-08  0.00D+00 EMaxC= 1.00D-01 BMatC= 1.32D-13 BMatP= 4.02D-12
 IDIUse=1 WtCom= 1.00D+00 WtEn= 0.00D+00
 Coeff-Com: -0.465D-07-0.670D-07 0.273D-05 0.554D-05 0.152D-04 0.743D-04
 Coeff-Com: -0.559D-03-0.326D-02-0.362D-02 0.132D+00 0.876D+00
 Coeff:     -0.465D-07-0.670D-07 0.273D-05 0.554D-05 0.152D-04 0.743D-04
 Coeff:     -0.559D-03-0.326D-02-0.362D-02 0.132D+00 0.876D+00
 Gap=     0.275 Goal=   None    Shift=    0.000
 Gap=     0.275 Goal=   None    Shift=    0.000
 RMSDP=1.80D-09 MaxDP=2.86D-08 DE= 1.25D-12 OVMax= 5.23D-08

 SCF Done:  E(UB3LYP) =  -189.794150740     A.U. after   11 cycles
            NFock= 11  Conv=0.18D-08     -V/T= 2.0060
 <Sx>= 0.0000 <Sy>= 0.0000 <Sz>= 0.0000 <S**2>=-0.0000 S=-0.0000
 <L.S>= 0.000000000000E+00
 KE= 1.886583976945D+02 PE=-5.861720956234D+02 EE= 1.378283231683D+02
 Annihilation of the first spin contaminant:
 S**2 before annihilation    -0.0000,   after    -0.0000
 Leave Link  502 at Mon Aug  3 15:46:49 2020, MaxMem=   524288000 cpu:              31.5 elap:               4.6
 (Enter /home/ubuntu/g16/l601.exe)
 Copying SCF densities to generalized density rwf, IOpCl= 1 IROHF=0.

 **********************************************************************

            Population analysis using the SCF density.

 **********************************************************************

 Orbital symmetries:
 Alpha Orbitals:
       Occupied  (A) (A) (A) (A) (A) (A) (A) (A) (A) (A) (A) (A)
       Virtual   (A) (A) (A) (A) (A) (A) (A) (A) (A) (A) (A) (A)
                 (A) (A) (A) (A) (A) (A) (A) (A) (A) (A) (A) (A)
                 (A) (A) (A) (A) (A) (A) (A) (A) (A) (A) (A) (A)
                 (A) (A) (A) (A) (A) (A) (A) (A) (A) (A) (A) (A)
                 (A) (A) (A) (A) (A) (A) (A) (A) (A) (A) (A) (A)
                 (A) (A) (A) (A) (A) (A) (A) (A) (A) (A) (A) (A)
                 (A) (A) (A)
 Beta  Orbitals:
       Occupied  (A) (A) (A) (A) (A) (A) (A) (A) (A) (A) (A) (A)
       Virtual   (A) (A) (A) (A) (A) (A) (A) (A) (A) (A) (A) (A)
                 (A) (A) (A) (A) (A) (A) (A) (A) (A) (A) (A) (A)
                 (A) (A) (A) (A) (A) (A) (A) (A) (A) (A) (A) (A)
                 (A) (A) (A) (A) (A) (A) (A) (A) (A) (A) (A) (A)
                 (A) (A) (A) (A) (A) (A) (A) (A) (A) (A) (A) (A)
                 (A) (A) (A) (A) (A) (A) (A) (A) (A) (A) (A) (A)
                 (A) (A) (A)
 The electronic state is 1-A.
     Natural Orbital Coefficients:
                           1         2         3         4         5
     Eigenvalues --     2.00000   2.00000   2.00000   2.00000   2.00000
   1 1   C  1S         -0.15756  -0.21730  -0.12955   0.06842   0.15422
   2        2S          0.21344   0.14766   0.14130  -0.07535  -0.09176
   3        3S          0.20087   0.04919   0.12913  -0.02963  -0.14424
   4        4S          0.03412   0.01040   0.05986  -0.02042  -0.04552
   5        5PX         0.11310   0.19426  -0.36071   0.12061   0.02023
   6        5PY        -0.00892  -0.10379  -0.07413   0.00258   0.19228
   7        5PZ        -0.03902   0.02420   0.12480   0.32537  -0.08338
   8        6PX         0.04583  -0.02448  -0.07159   0.02227  -0.03417
   9        6PY        -0.00395   0.00284  -0.01211   0.00390  -0.00980
  10        6PZ        -0.01529   0.00895   0.05070   0.12583  -0.03308
  11        7PX         0.00043   0.00058  -0.01901   0.00005  -0.01568
  12        7PY        -0.01404   0.00608  -0.00209   0.00241   0.00061
  13        7PZ        -0.00011  -0.00030   0.00151  -0.00014  -0.00050
  14        8D 0       -0.00514  -0.01015  -0.00210   0.00103   0.00960
  15        8D+1        0.00078   0.00154  -0.00902  -0.00063   0.00319
  16        8D-1        0.00235  -0.00135  -0.00783  -0.01923   0.00508
  17        8D+2        0.03853   0.00763  -0.00161   0.00749  -0.00544
  18        8D-2       -0.01158  -0.02666   0.03253  -0.00723   0.01211
  19        9D 0        0.00696   0.00734   0.00132  -0.00303   0.00396
  20        9D+1        0.00023   0.00041  -0.00239  -0.00026   0.00087
  21        9D-1       -0.00061   0.00062   0.00122   0.00598  -0.00113
  22        9D+2        0.03637  -0.01495   0.00105  -0.00063   0.01185
  23        9D-2       -0.00195   0.03239  -0.03026   0.00554   0.01451
  24 2   O  1S          0.05610  -0.01249   0.04051   0.06275   0.09026
  25        2S         -0.16241  -0.09426  -0.08524  -0.01069  -0.14796
  26        3S         -0.20731  -0.11783  -0.21860   0.02529  -0.12406
  27        4S         -0.05686  -0.03617  -0.16224   0.04338  -0.00490
  28        5PX         0.02320   0.10211   0.34710  -0.09340  -0.00447
  29        5PY         0.21753  -0.05973   0.30836  -0.09415  -0.11803
  30        5PZ        -0.03967   0.01185   0.16797   0.29401  -0.09438
  31        6PX         0.00420   0.07026   0.13403  -0.03347   0.03909
  32        6PY         0.12124  -0.02939   0.12623  -0.04043  -0.06192
  33        6PZ        -0.02384   0.00660   0.10264   0.17532  -0.05713
  34        7PX        -0.01071  -0.00263   0.00379   0.00299   0.01988
  35        7PY         0.02328  -0.00722  -0.00395   0.00152  -0.02567
  36        7PZ        -0.00336   0.00017   0.01685   0.02253  -0.00860
  37        8D 0       -0.00260  -0.00112  -0.01146   0.00382   0.00391
  38        8D+1       -0.00166   0.00077   0.00614   0.01308  -0.00374
  39        8D-1       -0.00113   0.00049   0.00431   0.00887  -0.00259
  40        8D+2       -0.00039   0.00682   0.00240  -0.00015  -0.00273
  41        8D-2        0.00477  -0.00054   0.01902  -0.00662  -0.00621
  42        9D 0       -0.00154  -0.00680   0.00775  -0.00109  -0.00600
  43        9D+1       -0.00150   0.00079   0.00531   0.01219  -0.00334
  44        9D-1       -0.00074   0.00039   0.00261   0.00600  -0.00164
  45        9D+2        0.00363   0.00965  -0.00665   0.00328   0.00297
  46        9D-2        0.00489   0.00384  -0.00861   0.00141   0.00732
  47 3   O  1S         -0.03614   0.03267  -0.04533  -0.27579  -0.21262
  48        2S         -0.12335   0.35282   0.02734   0.01125   0.18901
  49        3S         -0.10412   0.31898   0.04542   0.04500   0.29651
  50        4S         -0.07109   0.02565   0.04302   0.02014   0.10578
  51        5PX        -0.23622  -0.20459   0.23108  -0.01173   0.38738
  52        5PY         0.33338  -0.01430  -0.07915   0.12629   0.24285
  53        5PZ        -0.03053   0.04354   0.01992   0.32564  -0.04747
  54        6PX        -0.11368  -0.10394   0.11836   0.00405   0.22467
  55        6PY         0.08435   0.03850  -0.01120   0.04386   0.13401
  56        6PZ        -0.01892   0.02820   0.00878   0.20627  -0.02869
  57        7PX         0.00557  -0.01009   0.01443  -0.00060   0.03228
  58        7PY         0.01775  -0.00922   0.00662   0.00663   0.01965
  59        7PZ        -0.00182   0.00460  -0.00523   0.02523  -0.00132
  60        8D 0        0.00181  -0.00966   0.00276   0.00137   0.00630
  61        8D+1        0.00128  -0.00129  -0.00262  -0.01213   0.00243
  62        8D-1        0.00009  -0.00028   0.00053  -0.00118  -0.00002
  63        8D+2        0.01681   0.00557  -0.00589   0.00325  -0.00638
  64        8D-2       -0.00895  -0.00245   0.00246  -0.00341  -0.01071
  65        9D 0       -0.01234   0.00915  -0.00273  -0.00017  -0.00191
  66        9D+1        0.00182  -0.00180  -0.00382  -0.01727   0.00347
  67        9D-1       -0.00010  -0.00025   0.00116  -0.00061  -0.00033
  68        9D+2       -0.01799   0.01620   0.01098  -0.01072  -0.01607
  69        9D-2        0.01313  -0.00542  -0.00852   0.00282  -0.01696
  70 4   H  1S         -0.31835   0.15226   0.05445  -0.09671  -0.13402
  71        2S         -0.02885   0.00786  -0.01085  -0.03063  -0.03487
  72        3S         -0.00509   0.00024  -0.00157   0.00207   0.00105
  73        4PX        -0.00970  -0.00586   0.01087  -0.00222   0.01171
  74        4PY        -0.03643   0.03090   0.00670  -0.00964  -0.01190
  75        4PZ        -0.00118   0.00168   0.00097   0.01315  -0.00195
  76        5PX        -0.00392  -0.00396   0.00683   0.00016  -0.00029
  77        5PY        -0.00070   0.00536  -0.00226  -0.00392   0.00611
  78        5PZ        -0.00092   0.00118   0.00106   0.00954  -0.00155
  79 5   H  1S          0.04887   0.01367   0.01730  -0.04731   0.09308
  80        2S         -0.04937  -0.02632  -0.02382  -0.03228   0.13913
  81        3S         -0.00453  -0.00329  -0.01311   0.00059   0.00965
  82        4PX         0.00106   0.00499  -0.00656   0.00208  -0.00004
  83        4PY        -0.01236  -0.00708  -0.00417   0.00389  -0.00140
  84        4PZ        -0.00126   0.00076   0.00413   0.01049  -0.00272
  85        5PX        -0.00915  -0.00810   0.01166  -0.00032   0.00335
  86        5PY         0.01460   0.00538   0.00450   0.00715  -0.03014
  87        5PZ        -0.00011  -0.00002   0.00056   0.00061  -0.00028
                           6         7         8         9        10
     Eigenvalues --     2.00000   2.00000   2.00000   2.00000   2.00000
   1 1   C  1S          0.43415   0.12522  -0.36188  -0.35621  -0.40610
   2        2S         -0.02916   0.01212   0.12191   0.04647  -0.01281
   3        3S          0.21297  -0.00157   0.08481   0.01206  -0.00366
   4        4S          0.05255  -0.00303   0.03845  -0.00559  -0.04647
   5        5PX        -0.03741  -0.02248   0.02393  -0.08743  -0.04932
   6        5PY        -0.39083   0.06485   0.02674  -0.00017  -0.06110
   7        5PZ        -0.05475   0.06447   0.02103  -0.09171   0.02969
   8        6PX         0.03166   0.02140   0.01550  -0.01054   0.01716
   9        6PY         0.00861  -0.00153   0.00431   0.01971   0.04936
  10        6PZ        -0.02301   0.02233   0.01052  -0.04765   0.01647
  11        7PX        -0.02360  -0.00329  -0.01261  -0.00402  -0.00722
  12        7PY         0.02487  -0.00100   0.02483   0.00430   0.00762
  13        7PZ        -0.00117  -0.00171   0.00153  -0.00784   0.00320
  14        8D 0       -0.01415   0.00177   0.00124  -0.00183  -0.00771
  15        8D+1        0.00668   0.00930  -0.00868   0.04437  -0.01809
  16        8D-1        0.00359  -0.00332  -0.00168   0.00769  -0.00268
  17        8D+2        0.01719  -0.00312  -0.05445   0.00601   0.04763
  18        8D-2        0.02332   0.01173   0.03338   0.01257   0.01227
  19        9D 0       -0.01830   0.00175   0.00904   0.00309  -0.00231
  20        9D+1        0.00176   0.00239  -0.00225   0.01153  -0.00469
  21        9D-1       -0.00025   0.00233  -0.00063   0.00364  -0.00164
  22        9D+2       -0.03340   0.01260  -0.00642   0.00276   0.00691
  23        9D-2       -0.05014  -0.01108   0.00250  -0.00982  -0.02792
  24 2   O  1S         -0.03140  -0.37965   0.02083  -0.03338  -0.10050
  25        2S          0.10264   0.01010   0.09797   0.12212   0.29346
  26        3S          0.05542   0.03884   0.09850   0.12187   0.34346
  27        4S         -0.02472   0.01367   0.00362   0.00619   0.07988
  28        5PX         0.26259   0.00436   0.30966   0.02361  -0.15383
  29        5PY        -0.05044  -0.02684  -0.39863   0.06297   0.14963
  30        5PZ        -0.09051  -0.00064   0.07301  -0.35902   0.13956
  31        6PX         0.09507   0.00941   0.19440   0.00241  -0.10243
  32        6PY        -0.07231  -0.01971  -0.26214   0.02419   0.07992
  33        6PZ        -0.05587  -0.00307   0.04602  -0.22672   0.08837
  34        7PX         0.02496   0.00967   0.04785  -0.00027  -0.00947
  35        7PY        -0.00821  -0.00900  -0.07821  -0.00067   0.02625
  36        7PZ        -0.00992  -0.00433   0.00952  -0.04757   0.01889
  37        8D 0       -0.00493   0.00043  -0.00134  -0.00240  -0.00070
  38        8D+1       -0.00302   0.00140   0.00194  -0.00927   0.00348
  39        8D-1       -0.00216   0.00080   0.00145  -0.00700   0.00265
  40        8D+2        0.01364  -0.00088   0.01266  -0.00012  -0.00304
  41        8D-2        0.00447  -0.00028  -0.00146   0.00524   0.00481
  42        9D 0        0.01684   0.00022  -0.00447   0.00178   0.00739
  43        9D+1       -0.00254   0.00173   0.00143  -0.00665   0.00242
  44        9D-1       -0.00125   0.00085   0.00070  -0.00328   0.00119
  45        9D+2        0.00434  -0.00071   0.00614  -0.00129  -0.00034
  46        9D-2       -0.02242   0.00101  -0.00098  -0.00196  -0.00609
  47 3   O  1S         -0.04212   0.84372   0.02681  -0.18022   0.04210
  48        2S          0.03653  -0.04751  -0.15439   0.01618   0.14645
  49        3S          0.05407  -0.06594  -0.16284   0.04018   0.20971
  50        4S          0.08525  -0.01686  -0.04691   0.01772   0.08255
  51        5PX         0.01372   0.08580   0.07569   0.05771   0.07941
  52        5PY         0.19299   0.09575   0.07632   0.01332   0.21031
  53        5PZ         0.02360   0.17682  -0.08216   0.43504  -0.18528
  54        6PX         0.05314   0.05687   0.05404   0.02254   0.04556
  55        6PY         0.06488   0.02913   0.02841   0.01264   0.09063
  56        6PZ         0.01786   0.11612  -0.05576   0.29474  -0.12513
  57        7PX         0.00209   0.01668   0.03931   0.00301  -0.00419
  58        7PY         0.02252   0.00859   0.00540   0.00405   0.01992
  59        7PZ         0.00695   0.02096  -0.01304   0.06777  -0.02823
  60        8D 0        0.00312   0.00318   0.00045   0.00068   0.00322
  61        8D+1        0.00053  -0.00457   0.00121  -0.00676   0.00305
  62        8D-1       -0.00053  -0.00129   0.00091  -0.00464   0.00193
  63        8D+2        0.01061   0.00012   0.00341  -0.00080   0.00331
  64        8D-2       -0.00126  -0.00325  -0.00454  -0.00084  -0.00566
  65        9D 0        0.00070  -0.00473  -0.01044  -0.00276  -0.00258
  66        9D+1        0.00082  -0.00643   0.00164  -0.00922   0.00418
  67        9D-1       -0.00095  -0.00160   0.00129  -0.00669   0.00272
  68        9D+2       -0.01651  -0.00963  -0.01032   0.00365  -0.00502
  69        9D-2        0.01186  -0.00053  -0.00942  -0.00289   0.00311
  70 4   H  1S         -0.16814  -0.10287  -0.08959  -0.00530  -0.13789
  71        2S         -0.12952   0.00253   0.05323  -0.00194  -0.07733
  72        3S          0.01253   0.00006   0.00748   0.00238   0.00721
  73        4PX        -0.00467   0.00134  -0.00509   0.00307   0.00467
  74        4PY        -0.01344  -0.01530  -0.01832  -0.00018  -0.00925
  75        4PZ         0.00085   0.00696  -0.00312   0.01666  -0.00709
  76        5PX         0.01151  -0.00136  -0.01643   0.00099   0.00996
  77        5PY        -0.03035   0.00300   0.00738   0.00044  -0.00919
  78        5PZ         0.00036   0.00466  -0.00195   0.01034  -0.00444
  79 5   H  1S         -0.31562   0.05304   0.18174   0.02721  -0.09801
  80        2S         -0.34643   0.04754   0.10434  -0.00963  -0.14257
  81        3S         -0.03701   0.00152  -0.01319  -0.00277  -0.00578
  82        4PX        -0.00132  -0.00153  -0.00110  -0.00195  -0.00182
  83        4PY         0.01916  -0.00172  -0.00609  -0.00507  -0.00244
  84        4PZ        -0.00185   0.00197   0.00078  -0.00347   0.00117
  85        5PX         0.03016   0.00482   0.01322   0.00487   0.01201
  86        5PY         0.08186  -0.00627   0.00457   0.00363   0.02653
  87        5PZ        -0.00034  -0.00023   0.00035  -0.00179   0.00072
                          11        12        13        14        15
     Eigenvalues --     2.00000   2.00000   0.00000   0.00000   0.00000
   1 1   C  1S          0.53533   0.01678  -0.03363   0.01673  -0.00614
   2        2S          0.23822  -0.00962  -0.19265  -0.54152  -0.12165
   3        3S         -0.05157   0.02589  -2.73077  -5.99988  -1.17544
   4        4S         -0.03233   0.01343   4.18038 -13.09542  -1.12865
   5        5PX        -0.03146   0.00338   0.06802   0.17082   0.03586
   6        5PY         0.14154   0.00584   0.05231   0.23161   0.06340
   7        5PZ         0.01577   0.00729   0.00122  -0.01530  -0.20235
   8        6PX        -0.01180  -0.00527   0.20481   2.12917  -0.09720
   9        6PY         0.00773  -0.01663   2.89967   7.29159   1.26865
  10        6PZ         0.00611   0.00172   0.02607   0.23318   0.22408
  11        7PX         0.00488   0.00090   1.18930  -0.51875  -1.36786
  12        7PY        -0.00515  -0.00323  -1.35282   0.81757   0.97500
  13        7PZ        -0.00001  -0.00071   0.00650   0.11699   0.01278
  14        8D 0       -0.00566   0.00039   0.14479   0.38801   0.11885
  15        8D+1        0.00005   0.00394   0.00047   0.00514   0.07696
  16        8D-1       -0.00093  -0.00023  -0.00059  -0.02111  -0.05587
  17        8D+2        0.00313   0.00057  -0.07084  -0.10423  -0.28473
  18        8D-2        0.00801  -0.00234  -0.19313  -0.24158  -0.10291
  19        9D 0        0.02024  -0.00375   0.87453   0.74739   0.34493
  20        9D+1        0.00000   0.00102   0.00634   0.06695   0.41751
  21        9D-1        0.00032   0.00062   0.02979   0.26803   1.50494
  22        9D+2        0.02221   0.00453   1.52750  -1.28962  -0.44254
  23        9D-2        0.00791   0.00626   3.12821  -0.00759  -1.62292
  24 2   O  1S         -0.00029   0.93323  -0.02284  -0.07735  -0.03499
  25        2S          0.20538  -0.01899  -0.14447  -0.77603  -0.26943
  26        3S          0.21808  -0.07503   0.54900   4.52424   2.16768
  27        4S          0.02782  -0.02234   0.29485  11.73034   0.43313
  28        5PX        -0.03772  -0.00199  -0.07526  -0.07646  -0.09099
  29        5PY         0.04641   0.01726  -0.07017  -0.11479   0.23745
  30        5PZ         0.01380  -0.01812   0.00991   0.01039  -0.17511
  31        6PX        -0.01938  -0.00886   1.19372   2.70281   0.16568
  32        6PY         0.01692   0.00692   0.21862   1.85677   0.07319
  33        6PZ         0.00821  -0.01194   0.01217   0.09257   0.81285
  34        7PX        -0.00791  -0.00361   0.32737   2.52245   0.72659
  35        7PY        -0.00838   0.00110   0.47905   1.83587  -0.48456
  36        7PZ         0.00102  -0.00318  -0.01486  -0.05902   0.43033
  37        8D 0       -0.00159   0.00020   0.07084   0.02706  -0.30608
  38        8D+1        0.00063  -0.00021  -0.00452  -0.02060  -0.13093
  39        8D-1        0.00042  -0.00020  -0.00873  -0.01165   0.05156
  40        8D+2       -0.00251  -0.00060  -0.01868  -0.02095   0.17323
  41        8D-2        0.00574  -0.00026  -0.06927   0.07021   0.09046
  42        9D 0       -0.00391   0.00040  -0.30279  -0.41944   0.15052
  43        9D+1        0.00059  -0.00002   0.00074   0.01845   0.44669
  44        9D-1        0.00029  -0.00001  -0.01182  -0.06059   0.01444
  45        9D+2       -0.00182  -0.00079   0.11831   0.13456   0.21690
  46        9D-2        0.00360  -0.00040   0.28506   0.38591   0.00411
  47 3   O  1S         -0.14990   0.38295   0.01898  -0.04794   0.05785
  48        2S          0.05057  -0.00581   0.37800  -0.40286   0.30352
  49        3S          0.05393  -0.02264  -1.84880   1.89347  -2.02184
  50        4S         -0.03342  -0.00876 -14.65454   5.35797   0.67646
  51        5PX        -0.02381   0.00153   0.09435   0.04958   0.08257
  52        5PY         0.00578   0.01363  -0.10472   0.05011   0.06673
  53        5PZ         0.01672   0.05442   0.01252   0.01890  -0.06248
  54        6PX        -0.02936   0.00641  -1.12032  -1.90995  -0.30624
  55        6PY         0.01488   0.00077   1.56364   0.32339   1.51572
  56        6PZ         0.01061   0.03619  -0.00470  -0.02300   0.08889
  57        7PX         0.01039   0.00064   2.51148  -1.76362  -0.07050
  58        7PY        -0.00503   0.00016   2.04699   2.34821   1.27611
  59        7PZ         0.00133   0.00726  -0.02670  -0.14258  -0.05933
  60        8D 0       -0.00230   0.00048   0.08004   0.04073  -0.11733
  61        8D+1       -0.00061  -0.00118   0.00610   0.01761   0.04159
  62        8D-1       -0.00007  -0.00047   0.00123   0.00593   0.07022
  63        8D+2       -0.00039  -0.00004   0.03456  -0.22930  -0.03548
  64        8D-2       -0.00323  -0.00024  -0.10895   0.10064  -0.06940
  65        9D 0       -0.00470   0.00074   0.26163  -0.25608  -0.13467
  66        9D+1       -0.00087  -0.00165   0.00423   0.02191  -0.18208
  67        9D-1       -0.00003  -0.00063   0.00132  -0.03428  -0.27571
  68        9D+2        0.00781  -0.00233   1.18474   0.34936   0.27288
  69        9D-2       -0.00711   0.00127   0.31739   0.15037  -0.30220
  70 4   H  1S          0.03042  -0.01830   0.60161  -0.25541   0.64745
  71        2S          0.05371  -0.00073  14.31133   1.38031   2.22985
  72        3S         -0.00355  -0.00191  -0.23046   2.34176   1.32598
  73        4PX         0.00097  -0.00004   0.35348  -0.13807   0.07141
  74        4PY         0.00394  -0.00287   0.46977  -0.00070   0.55829
  75        4PZ         0.00067   0.00212  -0.00355  -0.01645  -0.12581
  76        5PX        -0.00863   0.00058  -1.05328   0.47506   0.17124
  77        5PY         0.01315   0.00096   4.64458   0.27970   0.76522
  78        5PZ         0.00047   0.00138   0.00121   0.09267   0.26385
  79 5   H  1S          0.22202  -0.00678   0.34681  -0.05595  -0.05417
  80        2S          0.18339   0.00497   0.53690  -7.17180  -1.58050
  81        3S          0.01494  -0.00094  -0.22931   2.04133  -0.70642
  82        4PX        -0.00116   0.00025  -0.23027  -0.06639  -0.00337
  83        4PY        -0.01818   0.00163   0.12739  -0.37163   0.04298
  84        4PZ         0.00051   0.00019   0.00682   0.02863  -0.01935
  85        5PX        -0.00312  -0.00376  -1.85545  -0.64652   0.98833
  86        5PY        -0.03897  -0.00196   0.20781   2.51792   0.38816
  87        5PZ         0.00003  -0.00013  -0.04137  -0.34397  -1.37588
                          16        17        18        19        20
     Eigenvalues --     0.00000   0.00000   0.00000   0.00000   0.00000
   1 1   C  1S          0.05532   0.01136  -0.09817   0.01608   0.07780
   2        2S          0.18891  -0.05240  -1.02768   0.76548   0.55514
   3        3S         -3.32158  -0.58347   1.09498   1.36084  -2.10023
   4        4S          3.47695   2.20908   1.94751   3.19270  -0.28873
   5        5PX        -0.18151  -0.10393  -0.22484   0.19646  -0.66090
   6        5PY         0.32258  -0.17118   0.17986  -0.40217  -0.07647
   7        5PZ        -0.01944  -0.20874  -0.06394   0.05538  -0.05490
   8        6PX        -0.58986   1.77435  -1.66191   1.87802   0.89077
   9        6PY         1.11866  -0.15324  -2.51678  -2.15410   2.09354
  10        6PZ        -0.41000  -1.10421  -0.41564  -0.03367   0.51061
  11        7PX        -0.26490  -0.29786   0.87084   0.23890  -0.52211
  12        7PY         2.26228  -0.45119   0.71001   1.15146   0.36076
  13        7PZ        -0.25495  -0.82905  -0.38957   0.20230   0.52451
  14        8D 0        0.24977   0.07753   0.00789  -0.11625   0.14429
  15        8D+1        0.01703   0.16532   0.01196   0.02172  -0.12715
  16        8D-1        0.03883   0.12129   0.00578   0.02416  -0.08873
  17        8D+2       -0.05225   0.23521  -0.13958   0.41348  -0.15667
  18        8D-2       -0.08014  -0.18015  -0.16470   0.21696   0.07050
  19        9D 0        0.29169  -0.46479  -0.68861  -0.51385  -0.31095
  20        9D+1        0.00943   0.60469   0.02781   0.02719  -0.37753
  21        9D-1       -0.03666   1.85406   0.49933  -0.02852  -0.68105
  22        9D+2       -0.38219  -0.40363  -0.22019  -0.83393  -0.52941
  23        9D-2       -0.95408  -0.99314   3.23321   1.82596  -0.32071
  24 2   O  1S         -0.06714  -0.01190   0.02714   0.05084  -0.00502
  25        2S         -0.01735  -0.26150   0.99642   0.61171   0.58830
  26        3S          1.92130   1.35554  -4.02801  -2.74677   0.16754
  27        4S         -0.29784   0.26717  -3.22997   0.62398   0.75189
  28        5PX        -0.00378   0.19269  -0.07314   0.04071   0.28233
  29        5PY        -0.11057   0.04365   0.05152  -0.18649   0.15504
  30        5PZ        -0.04593  -0.20711   0.00533   0.08714   0.02919
  31        6PX         0.55973  -0.07808  -0.46858  -1.22314  -0.73535
  32        6PY         0.26574   0.17881   0.30084   0.70066  -0.15617
  33        6PZ         0.09482   1.37296   0.30160   0.08528  -0.65519
  34        7PX         0.15910   0.48699  -1.63503   0.36487   0.36727
  35        7PY        -0.98748  -0.06575  -0.15029  -0.45957  -0.04075
  36        7PZ         0.25231   1.25802   0.39605  -0.24427  -0.54780
  37        8D 0       -0.25323   0.13567  -0.09511  -0.01311  -0.20999
  38        8D+1       -0.00594  -0.21453  -0.07211  -0.07004   0.21849
  39        8D-1        0.02106  -0.02170  -0.03654  -0.05887   0.07314
  40        8D+2       -0.04518  -0.15774  -0.00802   0.13744  -0.05123
  41        8D-2        0.17982  -0.07004   0.08487  -0.04961   0.06267
  42        9D 0        0.13195   0.24251  -0.29315  -0.13931   0.73281
  43        9D+1        0.11222   0.89301   0.24984  -0.02034  -0.38137
  44        9D-1        0.10872   0.24486   0.02157  -0.05961  -0.08735
  45        9D+2       -0.16385   0.06665  -0.05075  -0.38277  -0.21425
  46        9D-2        0.10571  -0.05981   0.39571  -0.09115  -0.27147
  47 3   O  1S         -0.04519  -0.01229  -0.02315   0.03726   0.01251
  48        2S          0.07119  -0.09106  -0.41097   0.32104   0.21495
  49        3S          0.27286   0.08617   1.60172  -0.67126  -1.10424
  50        4S         -1.27918  -0.02434   0.38569  -2.88067   0.51590
  51        5PX        -0.13212   0.08267  -0.04136  -0.11807   0.19519
  52        5PY         0.05857  -0.01114  -0.00275   0.14675   0.04537
  53        5PZ        -0.02666  -0.11837   0.04000   0.03444  -0.03548
  54        6PX        -0.69066   0.29986  -0.28068   0.99089  -1.07687
  55        6PY         1.15954  -0.35018  -0.09084  -0.95447   0.70602
  56        6PZ         0.08040   0.39286   0.19268   0.02783  -0.06178
  57        7PX         0.40329   1.00065  -1.43030   1.04499  -0.30479
  58        7PY        -0.36122  -1.01583   0.88344  -1.29312   0.52678
  59        7PZ         0.26162   0.73923   0.36199  -0.28810  -0.22051
  60        8D 0       -0.09395   0.24836  -0.08653  -0.10750   0.12904
  61        8D+1       -0.00555   0.14000   0.05293   0.03838  -0.10998
  62        8D-1        0.00411   0.09986   0.00205   0.02350  -0.12447
  63        8D+2       -0.05088  -0.01403   0.04031  -0.16407  -0.11063
  64        8D-2       -0.01939   0.13111   0.21782  -0.27393  -0.00460
  65        9D 0       -0.00439   0.05622   0.05143   0.52676  -0.29579
  66        9D+1       -0.10522  -0.50730  -0.18462   0.08279   0.09902
  67        9D-1       -0.01744  -0.44093  -0.10484   0.03993   0.24320
  68        9D+2        0.04341   0.03985   0.35319   0.11856   0.89932
  69        9D-2       -0.17718  -0.14523  -0.53478   1.18967  -0.11149
  70 4   H  1S          0.40606   0.04644  -0.07838   0.18592   0.44263
  71        2S          1.47506  -2.86082   1.12291  -1.26241   1.83930
  72        3S          0.66458  -1.17631   1.06774   0.05810   0.34825
  73        4PX        -0.00514   0.08549  -0.32805   0.34895   0.15985
  74        4PY         0.23464  -0.05777  -0.11032  -0.09174   0.16119
  75        4PZ        -0.01314  -0.14213  -0.04467   0.01331   0.03134
  76        5PX        -0.24691  -0.12060   0.13908   0.79622  -0.14328
  77        5PY         0.74532  -0.89961   0.00793  -0.13946   0.84188
  78        5PZ        -0.12250  -0.06462  -0.14410   0.12070   0.04136
  79 5   H  1S          0.13318   0.14581   0.29212   0.08856  -0.40512
  80        2S         -0.46391   0.54700   0.63784   1.49421  -1.28267
  81        3S         -2.81294  -0.03601  -1.58386  -1.35118  -0.25382
  82        4PX        -0.06990   0.10442   0.27018  -0.36397   0.26089
  83        4PY        -0.06777  -0.16787  -0.06255  -0.22211   0.12971
  84        4PZ        -0.04881  -0.11066  -0.03990   0.09238  -0.09077
  85        5PX         0.84296   0.42484  -2.46760  -1.14463  -0.32260
  86        5PY        -0.56363  -0.67443  -0.55114  -1.40651  -0.50849
  87        5PZ         0.22003  -1.11096  -0.24562  -0.01592   0.49382
                          21        22        23        24        25
     Eigenvalues --     0.00000   0.00000   0.00000   0.00000   0.00000
   1 1   C  1S          0.02472   0.05791   0.15140   0.03584   0.04485
   2        2S         -0.35134   0.13950   1.18142  -0.10603   0.84296
   3        3S         -1.63777   0.88466 -22.06765  -5.34924  -0.36898
   4        4S         -0.57630  -1.01875  -8.88384  -1.30184  -2.91959
   5        5PX        -0.28939  -0.56028   0.04249   0.13507   0.22236
   6        5PY        -0.25510  -0.65692   0.49378   0.03754   0.05031
   7        5PZ         0.10809  -0.13285   0.00603   0.00024  -0.02462
   8        6PX        -1.36860  -2.23246  -0.72899   1.06037   2.31544
   9        6PY         1.45601  -1.21735 -10.26265   0.12514  -1.03484
  10        6PZ        -0.07896  -0.20995   0.06861  -0.27469  -0.48404
  11        7PX        -0.84759   0.68089   0.59781   0.35604   0.47264
  12        7PY         0.63680  -0.99461  -3.96252   2.47400  -0.20799
  13        7PZ         0.04488   0.50687  -0.02606   0.16760  -0.12423
  14        8D 0        0.35501  -0.04965   0.33725   0.77900   0.04380
  15        8D+1       -0.02660  -0.02760   0.00251  -0.00510  -0.00488
  16        8D-1       -0.02855   0.09356  -0.02415   0.08781   0.17376
  17        8D+2        0.61589   0.81105  -0.19553  -0.02158   0.18012
  18        8D-2       -0.02418   0.02213  -0.01956  -0.00459  -0.28551
  19        9D 0       -0.11672   0.77035   0.97846   0.06287   0.13341
  20        9D+1       -0.23041   0.10417  -0.00471  -0.02709   0.07561
  21        9D-1       -0.18950   0.31139   0.05648  -0.31030  -0.47914
  22        9D+2       -0.40929   0.58976   0.67152  -2.20490   0.35161
  23        9D-2       -1.18170   1.44776   0.75882  -1.28990  -1.63997
  24 2   O  1S         -0.01563   0.06902  -0.01644  -0.04966  -0.02906
  25        2S         -0.24174   0.22386  -0.13693  -0.57977   0.08837
  26        3S          1.27852  -2.29819   0.45169   3.15207   1.28728
  27        4S         -1.23889  -3.22214   0.20955   3.10798   1.99113
  28        5PX         0.09065   0.07215   0.04267   0.04351  -0.14219
  29        5PY         0.06124  -0.05172  -0.07834  -0.12106   0.09565
  30        5PZ         0.28782  -0.15240   0.00878  -0.08071   0.03909
  31        6PX         0.14404  -0.90216   0.45827   0.74994   0.11635
  32        6PY        -0.64995  -1.22760   1.31434   1.75074  -0.09953
  33        6PZ        -0.11444   0.43777  -0.01857   0.01789   0.06203
  34        7PX        -0.18307  -1.81826  -0.45063  -0.53586   0.37520
  35        7PY        -0.40169   0.09982   0.67778  -0.02253  -0.04883
  36        7PZ        -0.47139  -0.19963   0.02470  -0.11234  -0.04031
  37        8D 0       -0.13979  -0.03157   0.01328  -0.06806   0.04062
  38        8D+1       -0.14250  -0.02668   0.00193   0.05765  -0.09577
  39        8D-1       -0.10596   0.07231  -0.00787   0.03343   0.02333
  40        8D+2        0.02842   0.06129   0.03982   0.35717  -0.01732
  41        8D-2        0.00101  -0.00611  -0.04350  -0.02881  -0.07234
  42        9D 0        0.36000  -0.07799  -0.39987   0.15037   0.26837
  43        9D+1       -0.06577   0.12208   0.00179  -0.03253  -0.01291
  44        9D-1       -0.14781   0.14182  -0.02946   0.10046   0.22893
  45        9D+2        0.42997  -0.12107  -0.25970  -0.18251   0.02704
  46        9D-2       -0.23915  -0.61034   0.66907   0.24264  -0.39674
  47 3   O  1S         -0.01004   0.01726  -0.03248  -0.07180   0.08413
  48        2S         -0.06614  -0.13999  -0.27864  -0.87773   0.57032
  49        3S         -0.04830  -0.29493   1.51369   3.36106  -3.16632
  50        4S          1.94205  -1.43369   0.63186   5.04183  -1.70249
  51        5PX         0.17825   0.14709  -0.01506  -0.06574   0.14775
  52        5PY        -0.07758  -0.06635  -0.07064  -0.05212   0.11160
  53        5PZ         0.22858  -0.21097   0.02570  -0.13870  -0.06916
  54        6PX        -0.77225  -0.32375  -0.91512  -0.49105   1.12208
  55        6PY         0.88631   1.28412   0.98538   0.26239   0.59652
  56        6PZ         0.14214   0.25668  -0.02466   0.10018   0.08437
  57        7PX        -0.93257  -0.47585   0.47322  -1.53662   0.09176
  58        7PY         0.60287   0.30909  -0.54248  -0.70976   0.11335
  59        7PZ        -0.32074  -0.28498   0.01350  -0.06419   0.06734
  60        8D 0        0.03345   0.01182  -0.05940   0.13516   0.31817
  61        8D+1        0.10977  -0.05333   0.00400  -0.00749  -0.03044
  62        8D-1        0.03509  -0.02987   0.00500  -0.05877   0.01593
  63        8D+2       -0.10001   0.03084   0.00078  -0.13600   0.12797
  64        8D-2        0.17341   0.05817   0.04371   0.04475   0.06026
  65        9D 0       -0.17958   0.09878  -0.11941  -0.45898   0.14281
  66        9D+1        0.06182  -0.13338   0.00702  -0.01114  -0.02213
  67        9D-1        0.15527   0.06083  -0.01983   0.07807   0.13674
  68        9D+2        0.39226   0.48837   0.17703  -0.34520   0.08961
  69        9D-2       -0.28852   0.17246  -0.65884  -0.38415   0.24306
  70 4   H  1S          0.37022   1.01967   0.22423  -0.39650   0.78469
  71        2S          0.66884   3.55072  -0.11500  -4.74960   0.57616
  72        3S          0.83448   0.06592  -1.62949   1.23613   0.30856
  73        4PX         0.08930   0.15779  -0.05489   0.05451  -0.12364
  74        4PY         0.13829   0.44398  -0.06277  -0.07026   0.39291
  75        4PZ         0.02672  -0.08595   0.00272   0.02082  -0.04071
  76        5PX        -0.02387  -0.57792  -0.18855   0.63848   0.40790
  77        5PY         0.35338   1.10547   0.31207  -1.41195  -0.13047
  78        5PZ        -0.03497   0.34086  -0.01729   0.05449  -0.00858
  79 5   H  1S          0.43710   0.93629   1.18157   0.57561   0.08006
  80        2S         -0.89476   2.20469  23.92435  -0.91780   2.31900
  81        3S         -0.34810   1.14855   5.23096  -1.94385   0.67451
  82        4PX         0.24456   0.05636  -0.05534   0.12048   0.20466
  83        4PY        -0.36607  -0.64241  -0.24897  -0.24205   0.27150
  84        4PZ         0.18695  -0.11736   0.00818  -0.02645  -0.03400
  85        5PX         0.78904  -0.80727  -0.38242   0.40989   0.42101
  86        5PY        -0.38921   0.05929  -7.87795  -0.50854  -0.39416
  87        5PZ         0.12709  -0.23568  -0.07044   0.41640   0.55956
                          26        27        28        29        30
     Eigenvalues --     0.00000   0.00000   0.00000   0.00000   0.00000
   1 1   C  1S          0.12459   0.05218  -0.01838  -0.03835  -0.00656
   2        2S          0.45809   0.47068  -0.18516   0.11115   0.21601
   3        3S         -0.92796  -2.58853   0.76255   0.24420  -1.49864
   4        4S          1.07873  -2.84639   4.38242  -3.10863   4.15666
   5        5PX         0.35935  -0.20518  -0.18810   0.19271  -0.01975
   6        5PY         0.25786  -0.00332   0.38212   0.12915   0.04282
   7        5PZ        -0.08837  -0.03049   0.00454  -0.00775  -0.01847
   8        6PX         1.52876  -0.74868  -0.21283  -1.51770  -0.71575
   9        6PY         0.72818   2.69367  -0.04298  -0.14136   0.00592
  10        6PZ         0.53157  -0.38436   0.50093   0.76820  -0.07791
  11        7PX         1.05020  -1.08720   0.86547  -1.09187   0.11625
  12        7PY        -0.97849   2.52587  -1.42383  -0.12584   0.70930
  13        7PZ         0.36306  -0.17595   0.20165   0.07376  -0.20397
  14        8D 0       -0.11576   0.06877  -0.23857   0.09030   0.42186
  15        8D+1        0.06019  -0.00263  -0.02847   0.02216  -0.09838
  16        8D-1        0.03074   0.15001  -0.00934  -0.02554   0.03036
  17        8D+2       -0.33720   0.06820   0.10267  -0.41123   0.19216
  18        8D-2        0.07093  -0.01110  -0.03155  -0.14980  -0.21091
  19        9D 0        0.83192   0.25825   0.10204   0.39169  -0.18738
  20        9D+1        0.35346  -0.04142  -0.09471   0.21784  -0.20870
  21        9D-1        0.28987  -0.20542   0.05309   0.03675  -0.18401
  22        9D+2       -0.71264   0.07989   1.59439  -0.63531   0.43108
  23        9D-2        0.56939  -0.98522   2.15711   0.95687   1.07266
  24 2   O  1S         -0.06631  -0.01621   0.01608   0.00891   0.03316
  25        2S         -0.37330  -0.21673  -0.05180   0.15714  -0.23177
  26        3S          2.14638   1.36255  -1.12839  -0.62608  -0.10934
  27        4S         -0.62431   3.10375  -2.57221  -0.95611  -2.35773
  28        5PX         0.21714  -0.05704  -0.13833   0.11862  -0.04348
  29        5PY         0.12956   0.01505   0.18276   0.22320  -0.06396
  30        5PZ         0.07959  -0.03035  -0.03995  -0.08632   0.18082
  31        6PX         0.10409   0.90904   0.42328  -0.25603   0.30194
  32        6PY         0.80995  -0.44706  -0.61251   0.06555  -0.01461
  33        6PZ         0.20362   0.08470  -0.11887  -0.03217  -0.34175
  34        7PX        -0.96854   1.13432  -0.37259  -0.32515  -0.54791
  35        7PY         0.26380  -0.56880  -0.26017  -0.28313  -0.94006
  36        7PZ        -0.24858   0.11749  -0.20374  -0.00100  -0.08722
  37        8D 0       -0.17879  -0.04167   0.27440   0.04138   0.00962
  38        8D+1       -0.13482  -0.08222   0.03282   0.02446  -0.07811
  39        8D-1       -0.04350   0.06968   0.11274   0.07818  -0.04736
  40        8D+2        0.08133  -0.01457   0.26997  -0.25441  -0.22106
  41        8D-2        0.09322   0.08706  -0.03264  -0.01022  -0.07331
  42        9D 0        0.10225   0.00834   0.05338  -0.39002   0.01881
  43        9D+1        0.01812   0.01166  -0.13416  -0.12782  -0.04204
  44        9D-1        0.03197   0.29661   0.07080   0.15400  -0.06243
  45        9D+2       -0.66352   0.63140   0.33055  -0.15653   0.13358
  46        9D-2       -0.17861  -0.43589  -0.11886   0.09080   0.05116
  47 3   O  1S         -0.02608  -0.05201   0.01267  -0.01350   0.02281
  48        2S         -0.09284  -0.49318  -0.02395  -0.32251  -0.49018
  49        3S          0.84898   2.48139  -0.53260   1.63195   0.81156
  50        4S         -1.14610   6.36686  -6.88591   2.33323   0.41954
  51        5PX        -0.18385   0.01495   0.01939   0.02883   0.10707
  52        5PY         0.01736  -0.04259   0.07412  -0.03984   0.05350
  53        5PZ         0.02577   0.08827   0.11508   0.21223  -0.09846
  54        6PX         0.08188  -0.86737  -0.08241  -0.40625  -0.62276
  55        6PY        -0.07770  -0.44018  -0.08764   0.30174  -0.42655
  56        6PZ        -0.20836   0.08431  -0.09926  -0.42537   0.21196
  57        7PX        -0.03453  -0.76930   1.39804  -0.86049  -0.20826
  58        7PY        -0.05671  -0.75999   0.27245   1.78753  -0.16843
  59        7PZ        -0.52751   0.17194  -0.22988  -0.32603   0.42290
  60        8D 0        0.02359  -0.10513  -0.01843  -0.06803   0.06194
  61        8D+1       -0.00630  -0.08097  -0.05624  -0.08862  -0.07698
  62        8D-1        0.03072   0.06279   0.07626   0.05263  -0.02530
  63        8D+2        0.34759   0.36471  -0.23175  -0.23583   0.11360
  64        8D-2       -0.14351  -0.04574  -0.11663   0.09280   0.01001
  65        9D 0       -0.01522  -0.10992   0.21547   0.20563   0.05291
  66        9D+1        0.09608  -0.17400  -0.02742   0.16259  -0.13703
  67        9D-1       -0.01995   0.19194   0.13946   0.02659   0.11185
  68        9D+2       -0.25742   0.06529   0.43350  -0.16193   0.01571
  69        9D-2        0.22843  -0.09529   0.27295  -0.47464   0.27165
  70 4   H  1S         -0.25592   0.10992   0.29907  -0.06661   0.01447
  71        2S          0.74476  -4.59336   4.82284   0.81745  -0.26212
  72        3S         -0.88101   0.96204  -0.94558   1.24742  -0.13933
  73        4PX        -0.06359  -0.12286  -0.01753   0.07393   0.00080
  74        4PY         0.22001  -0.20083   0.25072  -0.17959   0.10649
  75        4PZ        -0.03558  -0.12383  -0.05146  -0.07527  -0.08808
  76        5PX        -0.06384   0.36010  -0.90655   0.33620   0.07121
  77        5PY        -0.00412  -1.55653   1.37474  -0.23325   0.06553
  78        5PZ         0.29703  -0.12008   0.06698   0.07447  -0.15213
  79 5   H  1S         -0.37817   0.12081   0.01559  -0.28467   0.09449
  80        2S         -0.40054  -2.28644   1.75768  -0.66121   0.49915
  81        3S          0.77964  -1.16818   0.06975   0.27477  -1.53390
  82        4PX         0.21090   0.04542  -0.17125   0.10953  -0.04487
  83        4PY        -0.00798  -0.16567  -0.07155   0.26438   0.08297
  84        4PZ         0.04883  -0.19886  -0.10697  -0.10317  -0.03592
  85        5PX        -1.07983   0.68188  -1.17075  -0.83566  -0.65752
  86        5PY         0.47857   0.46363  -0.31554   0.30765  -0.64503
  87        5PZ        -0.50203   0.20424  -0.36455  -0.45183   0.18096
                          31        32        33        34        35
     Eigenvalues --     0.00000   0.00000   0.00000   0.00000   0.00000
   1 1   C  1S         -0.06465   0.02159   0.04801   0.03201   0.00529
   2        2S         -0.66488   0.28863   0.31207   0.90268   0.80784
   3        3S          0.10367   0.53380  -1.06007  -0.86841  -0.52005
   4        4S         -1.56003   2.86446  -1.44043  -0.24693  -0.82824
   5        5PX         0.11035  -0.09377  -0.30140  -0.35534  -0.10226
   6        5PY         0.22418  -0.15331  -0.07298  -0.05883   0.11897
   7        5PZ        -0.12365   0.03779  -0.09739  -0.13275  -0.11377
   8        6PX        -1.14584   0.67698  -2.74023  -0.13687  -0.92305
   9        6PY         0.78675   0.12209   1.14612  -0.02780  -0.03710
  10        6PZ         0.19394   0.03269  -0.05348  -0.04039   0.24636
  11        7PX        -0.85018   0.59274  -0.84108   0.17387   0.02584
  12        7PY        -0.56871  -1.57756   1.30295   0.43860   0.45200
  13        7PZ        -0.07431  -0.20977   0.16702   0.13891  -0.47543
  14        8D 0        0.01951   0.03942   0.05806  -0.04887  -0.19929
  15        8D+1       -0.20891   0.08582   0.07594  -0.10164  -0.00316
  16        8D-1        0.02213   0.19480   0.09812  -0.20082   0.18957
  17        8D+2        0.01687   0.13170   0.13286  -0.19585  -0.09913
  18        8D-2       -0.01923   0.26887   0.23312   0.10700   0.00503
  19        9D 0        0.09931   0.29683   0.39509   0.04498  -0.27186
  20        9D+1        0.06484   0.00756   0.00401   0.41896   0.05799
  21        9D-1       -0.16458   0.08933   0.07712   0.30892  -0.15271
  22        9D+2        0.58428   1.21378   0.26329  -0.94142  -0.49965
  23        9D-2        1.30876   1.18543   1.15187  -0.17147   0.30386
  24 2   O  1S         -0.01131   0.01574   0.03030   0.02943   0.02494
  25        2S         -0.05379  -0.11737   0.24415  -0.02697   0.16086
  26        3S         -0.49551  -0.50596  -1.44738  -0.10599  -0.83031
  27        4S         -0.32371  -1.01168  -1.22043   0.57062  -0.29753
  28        5PX        -0.06513  -0.25894  -0.14312  -0.32778  -0.00589
  29        5PY         0.09187  -0.23844   0.08661  -0.15313  -0.10686
  30        5PZ         0.37136  -0.09912  -0.18815   0.18046   0.09183
  31        6PX         0.68979   0.27307  -0.17133  -0.33562  -0.44969
  32        6PY        -0.21286  -0.25946  -0.80854   0.15702   0.03113
  33        6PZ        -0.42200   0.10468   0.35115   0.13722  -0.14137
  34        7PX         0.62270   0.23315  -0.06140   0.04974  -0.31556
  35        7PY        -0.08278   0.14701  -0.38481   0.33574   0.02016
  36        7PZ        -0.27421   0.27744   0.10398  -0.03851   0.29645
  37        8D 0        0.04559  -0.15621   0.23745   0.04695   0.01839
  38        8D+1       -0.21570  -0.05381  -0.14483   0.11683  -0.27867
  39        8D-1       -0.22935  -0.04067  -0.09864  -0.02172  -0.14616
  40        8D+2        0.06268  -0.03005   0.14930  -0.11302  -0.13104
  41        8D-2        0.02227   0.20693   0.08102   0.06604   0.31526
  42        9D 0       -0.32447  -0.11666   0.16664   0.13980   0.05206
  43        9D+1       -0.10260  -0.03203  -0.04269   0.26088  -0.13425
  44        9D-1       -0.13308   0.05765   0.05782   0.05773   0.10091
  45        9D+2        0.43464   0.17008  -0.07694  -0.14464   0.10927
  46        9D-2        0.12350  -0.26415  -0.30019  -0.48190  -0.20461
  47 3   O  1S         -0.02736  -0.01317  -0.02510  -0.01441   0.00385
  48        2S          0.15514  -0.07799  -0.27401  -0.27259  -0.22426
  49        3S          0.60130   0.63969   1.52284   1.21710   0.37928
  50        4S          0.43891  -2.92458   1.94813   0.84874   1.92597
  51        5PX        -0.01927  -0.02854  -0.01037  -0.00665   0.35142
  52        5PY        -0.02904   0.14772  -0.07882   0.02376   0.01690
  53        5PZ        -0.25969   0.03209   0.00732   0.07400   0.10170
  54        6PX        -0.49014  -0.10265  -1.19025  -0.17909  -0.51114
  55        6PY         0.02582  -1.29095  -0.00120  -0.08599   0.33822
  56        6PZ         0.12667  -0.06108  -0.06784  -0.10862  -0.23270
  57        7PX        -0.06582   0.80805  -0.90594  -0.35656  -0.85971
  58        7PY         1.02022  -0.35603   0.77850   0.25536   0.36384
  59        7PZ         0.48142   0.18191  -0.19214  -0.20606   0.41100
  60        8D 0       -0.15773  -0.22450   0.08985   0.00794   0.18192
  61        8D+1       -0.19673   0.09952   0.19069  -0.18652   0.10132
  62        8D-1       -0.14541   0.01715  -0.07929   0.07516  -0.07757
  63        8D+2       -0.07857  -0.21425   0.04614  -0.17791  -0.16281
  64        8D-2        0.01971   0.32671   0.03605   0.02539  -0.36190
  65        9D 0        0.14395   0.01943  -0.02214   0.00223   0.05423
  66        9D+1        0.04293  -0.11924   0.04574   0.10870  -0.08291
  67        9D-1        0.02714   0.01417  -0.03010  -0.11732   0.00781
  68        9D+2        0.25360  -0.17439   0.34853  -0.20379  -0.08210
  69        9D-2       -0.20796   0.51777   0.02503  -0.08887  -0.03517
  70 4   H  1S          0.28627  -0.70274  -0.27132  -0.55260   0.02296
  71        2S          1.16299   0.71276   2.00976  -0.42340  -0.02368
  72        3S          0.20504  -1.65051   1.82688   0.26144   0.28817
  73        4PX        -0.05203   0.01384   0.22549   0.21717  -0.04199
  74        4PY        -0.05162  -0.27901  -0.34319  -0.38301   0.29349
  75        4PZ        -0.14767   0.03020   0.22719  -0.15698   0.03419
  76        5PX         0.05569   0.04789  -0.25667   0.14829   0.12903
  77        5PY        -0.06812   0.01787   0.76393   0.01128   0.02221
  78        5PZ         0.03360  -0.08956   0.15655   0.11517  -0.13069
  79 5   H  1S          0.10877   0.34024   0.10220  -0.21617  -0.31241
  80        2S         -0.51109   0.88489  -0.69843  -0.99647  -0.76209
  81        3S          0.55986   0.47291  -1.10338  -0.23013  -0.01834
  82        4PX         0.00114   0.16929  -0.06136   0.18843   0.08253
  83        4PY        -0.07699   0.11237  -0.20577  -0.13150   0.25054
  84        4PZ        -0.01190  -0.05584   0.12004  -0.05668  -0.02341
  85        5PX        -0.81499  -1.14034  -0.38712  -0.24742  -0.34420
  86        5PY         0.33138   0.08647   0.02224  -0.02837   0.13978
  87        5PZ         0.15492  -0.23234  -0.11858  -0.08160  -0.06629
                          36        37        38        39        40
     Eigenvalues --     0.00000   0.00000   0.00000   0.00000   0.00000
   1 1   C  1S         -0.08456  -0.01581   0.02233  -0.00796  -0.06920
   2        2S         -0.86641   0.31582  -0.25993  -0.31618  -0.94923
   3        3S          0.40388  -0.51756   0.98439   0.14856   0.27555
   4        4S         -0.57702   1.59758   1.00344   0.41871  -0.16002
   5        5PX         0.23029  -0.17614  -0.03663   0.34964   0.07633
   6        5PY         0.23217   0.21820  -0.13449   0.27372   0.16848
   7        5PZ         0.21852  -0.21331  -0.21315  -0.04685  -0.22382
   8        6PX         2.39116   1.99247   3.07976   1.09634   0.34410
   9        6PY        -0.82191  -0.04100  -0.53476   0.15275  -0.22898
  10        6PZ         0.06479   0.27016   0.28645   0.03409  -0.30655
  11        7PX        -0.00225   0.44507   0.41192   0.26060   0.30291
  12        7PY        -0.81409  -0.35119  -0.00534  -0.84147   0.48655
  13        7PZ         0.37595   0.25954   0.46952   0.19357   0.39984
  14        8D 0        0.10066   0.13830   0.03481   0.05508  -0.01442
  15        8D+1       -0.26766   0.07782  -0.10626  -0.01657   0.13762
  16        8D-1        0.24386  -0.15002   0.05806  -0.24380   0.11326
  17        8D+2        0.35737   0.10335  -0.02325   0.25341  -0.45171
  18        8D-2       -0.14584  -0.12358  -0.06263  -0.42700  -0.20070
  19        9D 0       -0.43305  -0.38253   0.03551  -0.18191   0.09048
  20        9D+1       -1.43671  -0.06159   0.08264   0.30541  -0.14726
  21        9D-1        0.19670  -0.08349   0.19763  -0.06899   0.03114
  22        9D+2       -0.13899  -0.05097   0.45758   0.51249   0.32812
  23        9D-2       -0.78382  -1.28668  -1.91120   0.22694  -0.14208
  24 2   O  1S         -0.03487  -0.02605  -0.02872  -0.03354  -0.00709
  25        2S         -0.27096  -0.23116  -0.27071   0.12347   0.05732
  26        3S          1.24385   1.65399   1.97295   0.52645   0.14171
  27        4S          1.98614   0.79040   1.51214   0.37737   1.05436
  28        5PX        -0.15459  -0.00724   0.10562   0.12633  -0.05887
  29        5PY        -0.04559   0.11247   0.02421   0.08402   0.00591
  30        5PZ        -0.08131  -0.05369   0.14709  -0.12399   0.39888
  31        6PX         0.74896   0.35295   0.01071   0.56290   0.49427
  32        6PY         0.54752  -0.08299   0.01737  -0.12045   0.44954
  33        6PZ        -0.57365   0.05412  -0.01595   0.25828  -0.28540
  34        7PX         1.00191   0.15001   0.34581   0.31762  -0.04700
  35        7PY         0.51136   0.20831  -0.11660   0.61100   0.06044
  36        7PZ        -0.78288  -0.13249  -0.36066  -0.09703  -0.01654
  37        8D 0       -0.05924   0.02580   0.39677  -0.14596  -0.14161
  38        8D+1        0.16361  -0.23515  -0.07931   0.03645  -0.08136
  39        8D-1        0.19032  -0.05020   0.02670  -0.03834   0.21260
  40        8D+2       -0.01746  -0.13945   0.25013   0.12688  -0.19248
  41        8D-2        0.07227  -0.48299   0.44170   0.27029   0.05888
  42        9D 0       -0.20649   0.03653  -0.17326   0.04874   0.02070
  43        9D+1       -0.26320  -0.11396   0.08985   0.05341   0.09615
  44        9D-1       -0.56037   0.05167   0.08225   0.21166  -0.09940
  45        9D+2        0.05585   0.17367  -0.38777   0.12283   0.00747
  46        9D-2        0.13384  -0.01901  -0.15806  -0.04444   0.27963
  47 3   O  1S          0.00615   0.00597   0.01567  -0.01293   0.00822
  48        2S          0.20424  -0.08625  -0.31069  -0.32087   0.09077
  49        3S         -0.78588  -0.15916  -0.20365   0.51880  -0.63765
  50        4S         -0.21328  -1.10887  -2.24658  -1.14986   0.09603
  51        5PX         0.08690   0.02418  -0.17328   0.58646   0.05446
  52        5PY         0.02725   0.10572  -0.00919  -0.04993   0.07611
  53        5PZ        -0.39006   0.02507   0.01432  -0.01536   0.31804
  54        6PX         0.35640   0.37532   1.02901  -0.64374  -0.03264
  55        6PY        -0.54501  -0.65272  -1.11642  -0.85841   0.75848
  56        6PZ         1.24884  -0.13600   0.00126  -0.17404  -0.27991
  57        7PX         0.44572   0.45220   1.27231   0.52008   0.38476
  58        7PY         0.26325  -0.51245  -0.76740  -0.26381  -1.02033
  59        7PZ         0.36523  -0.25652  -0.39718  -0.41995  -0.01325
  60        8D 0        0.05022  -0.46052  -0.33973  -0.14550   0.11098
  61        8D+1        0.19919   0.15149   0.06205  -0.10832   0.51149
  62        8D-1       -0.12974  -0.13228   0.04804  -0.01715   0.09912
  63        8D+2       -0.12374  -0.12256  -0.23982   0.04761   0.06265
  64        8D-2       -0.09345   0.24071  -0.06879   0.10621  -0.00073
  65        9D 0        0.05734   0.12059   0.17385   0.14307  -0.05968
  66        9D+1       -0.63036   0.09802  -0.06589   0.43243  -0.52528
  67        9D-1        0.35978   0.13249   0.03681   0.02795   0.08680
  68        9D+2        0.21292   0.02780  -0.01336  -0.11109   0.21004
  69        9D-2        0.00305  -0.02187   0.02561   0.41635  -0.35001
  70 4   H  1S          0.07014  -0.12645  -0.51345  -0.53170   0.76021
  71        2S         -2.42219  -1.95254  -2.31139  -0.88743  -0.65256
  72        3S         -0.49137  -0.77683  -0.34849  -0.33829  -0.15302
  73        4PX         0.17340   0.00687  -0.16238   0.32134   0.21013
  74        4PY        -0.10566  -0.33957  -0.44089   0.11355   0.35986
  75        4PZ        -0.04081   0.15136  -0.05306   0.06945  -0.00708
  76        5PX         0.60395   0.14448  -0.15244   0.23255  -0.42727
  77        5PY        -1.07897  -0.44604  -0.86725  -0.76369  -0.12265
  78        5PZ        -0.06595   0.15787   0.28056   0.17822   0.17125
  79 5   H  1S          0.24136  -0.04666   0.02872   0.19839   0.01821
  80        2S         -0.19968   0.00173   1.30378   0.06749   0.13627
  81        3S          0.93711   0.29866  -0.15140   0.70560  -0.09176
  82        4PX         0.14656   0.04170   0.13804  -0.09961   0.00511
  83        4PY        -0.32252  -0.12637   0.07464  -0.01073   0.04872
  84        4PZ         0.00905   0.08054   0.00653   0.07129  -0.07051
  85        5PX        -0.13243   0.56662   0.81966  -0.09810   0.27020
  86        5PY         0.19547  -0.20859  -0.27599  -0.14842   0.07616
  87        5PZ        -0.45099   0.03639  -0.19443   0.18550   0.16585
                          41        42        43        44        45
     Eigenvalues --     0.00000   0.00000   0.00000   0.00000   0.00000
   1 1   C  1S          0.01863  -0.03259   0.04369   0.12829   0.01297
   2        2S          0.58992  -0.23815   0.62968   0.20530   0.21026
   3        3S         -1.27001  -0.13240  -0.58785  -0.63345   0.15852
   4        4S          0.30049   0.38873  -0.25969   0.15181  -0.15848
   5        5PX         0.37800   0.23678  -0.07401   0.17075   0.09579
   6        5PY         0.07336  -0.07125  -0.11099  -0.04486  -0.21981
   7        5PZ         0.09285  -0.25285   0.06900   0.05973   0.12290
   8        6PX        -3.42244  -0.59370   0.78502  -1.93859   0.42455
   9        6PY         0.87337  -0.24682   0.21377   0.47717  -0.32954
  10        6PZ        -0.43203   0.10936   0.02087  -0.13970  -0.03037
  11        7PX         0.27722   0.07552  -0.20384  -0.75763   0.12951
  12        7PY         0.90464  -0.04778  -0.56294   0.83187   0.06242
  13        7PZ         0.09407  -0.19230   0.11571   0.17608   0.06728
  14        8D 0       -0.00006   0.10474   0.49239   0.39031  -0.07307
  15        8D+1       -0.02427   0.04229   0.05964  -0.01847  -0.06064
  16        8D-1        0.22272  -0.42823   0.29267  -0.00447   0.45600
  17        8D+2       -0.02832  -0.13179  -0.12284  -0.37188  -0.25333
  18        8D-2       -0.15380  -0.02427  -0.03830  -0.09754  -0.34615
  19        9D 0        0.32009   0.21889  -0.03325  -0.18855  -0.25580
  20        9D+1       -0.33753  -0.37871   0.19262  -0.22875   0.38259
  21        9D-1        0.13849   0.18174  -0.07662   0.10124  -0.27439
  22        9D+2        0.27318  -0.18953  -0.35581   0.43595   0.08712
  23        9D-2        1.60644   0.17062  -0.54677   1.20752  -0.17242
  24 2   O  1S          0.01331  -0.00356  -0.01937   0.00356   0.01160
  25        2S          0.48333   0.09991   0.22957   0.42158   0.01483
  26        3S         -1.75522  -0.25480   0.63455  -1.11615   0.01413
  27        4S         -1.61379   0.17905   0.40639  -1.73143   0.53357
  28        5PX         0.23592  -0.04768  -0.14921   0.19272   0.03064
  29        5PY         0.33943   0.02986   0.03837   0.07056   0.11964
  30        5PZ         0.11111  -0.07458   0.00248  -0.05022   0.06155
  31        6PX        -0.14200   0.21546   0.30484  -0.08553  -0.02332
  32        6PY        -0.64704   0.26420   0.00873   0.07517  -0.07927
  33        6PZ        -0.12349  -0.01081   0.05214   0.03293  -0.02624
  34        7PX        -0.67399  -0.02967  -0.17165  -0.26989   0.03263
  35        7PY        -0.36335  -0.07873   0.83183  -0.81839   0.79832
  36        7PZ        -0.02803  -0.05198   0.09788  -0.14278   0.17001
  37        8D 0        0.33608   0.23218   0.37522  -0.24396  -0.28670
  38        8D+1        0.11325  -0.10217   0.12523   0.04766   0.12615
  39        8D-1        0.03950  -0.37348  -0.07009  -0.06400  -0.49526
  40        8D+2        0.24226  -0.04405  -0.04027   0.00719  -0.01631
  41        8D-2        0.01112   0.13916   0.15176   0.26509  -0.14497
  42        9D 0       -0.34876  -0.42001  -0.29467   0.16653   0.36426
  43        9D+1        0.07802   0.09141   0.02188  -0.01692   0.10928
  44        9D-1       -0.25195   0.21380  -0.06679  -0.12225   0.46952
  45        9D+2        0.02043   0.04358  -0.09336  -0.19559  -0.11567
  46        9D-2        0.06494   0.10842  -0.24129  -0.57646   0.25481
  47 3   O  1S         -0.00228   0.01330   0.00436  -0.00946   0.01640
  48        2S          0.00611   0.16503   0.23806  -0.54842   0.20044
  49        3S          0.82148  -0.38957  -0.66660   1.56835  -0.67949
  50        4S          2.16383   0.28333  -0.72863   1.46041   0.09957
  51        5PX         0.33864  -0.10007  -0.23327  -0.15750  -0.04408
  52        5PY        -0.20583  -0.02273   0.00545   0.00923   0.08394
  53        5PZ        -0.08906  -0.20405  -0.00827  -0.04412  -0.14651
  54        6PX        -1.19263   0.19238   0.59286  -0.52115   0.76629
  55        6PY         0.68988   0.79651   0.39060  -0.06933  -0.06970
  56        6PZ         0.45738   0.32744  -0.02481   0.15820   0.10587
  57        7PX        -0.80307   0.20568   0.25703  -0.81250   0.09773
  58        7PY        -0.57386  -0.03768   0.46110   0.05312  -0.75933
  59        7PZ         0.22525   0.10143  -0.19103   0.05428  -0.29718
  60        8D 0       -0.10908   0.21871  -0.11306  -0.26335  -0.16889
  61        8D+1        0.06755   0.30251   0.01286   0.02235   0.14604
  62        8D-1        0.05069   0.00065   0.01098   0.01313  -0.06079
  63        8D+2       -0.12462   0.13122   0.44838  -0.15578  -0.05464
  64        8D-2        0.40417   0.01411  -0.08769  -0.20835   0.02978
  65        9D 0        0.17101  -0.11315  -0.11951   0.36977   0.40331
  66        9D+1       -0.42029   0.05385  -0.16054  -0.08734   0.06486
[...]
                      KCal/Mol        Cal/Mol-Kelvin    Cal/Mol-Kelvin
 Total                   23.063              8.695             59.382
 Electronic               0.000              0.000              0.000
 Translational            0.889              2.981             37.404
 Rotational               0.889              2.981             21.047
 Vibrational             21.286              2.734              0.931
                       Q            Log10(Q)             Ln(Q)
 Total Bot       0.434463D-04         -4.362047        -10.043985
 Total V=0       0.120820D+12         11.082140         25.517571
 Vib (Bot)       0.398958D-15        -15.399072        -35.457675
 Vib (V=0)       0.110947D+01          0.045115          0.103882
 Electronic      0.100000D+01          0.000000          0.000000
 Translational   0.122650D+08          7.088668         16.322262
 Rotational      0.887885D+04          3.948357          9.091427
 
                                                       HOOCH_UB3LYP-aug-cc-pVDZ
                                                             IR Spectrum
 
     3                      3                                          1             1  1     1  1                                   
     7                      0                                          8             3  2     1  0           6 6                     
     1                      6                                          0             8  9     2  4           7 2                     
     7                      6                                          4             6  6     5  6           7 3                     
 
     X                      X                                          X             X  X     X  X           X X                     
     X                      X                                          X                      X              X X                     
     X                                                                 X                      X              X                       
                                                                       X                      X              X                       
                                                                       X                      X              X                       
                                                                       X                      X              X                       
                                                                       X                      X              X                       
                                                                       X                      X                                      
                                                                       X                      X                                      
                                                                       X                      X                                      
                                                                       X                      X                                      
                                                                       X                      X                                      
                                                                       X                      X                                      
                                                                       X                      X                                      
                                                                       X                                                             
                                                                       X                                                             
                                                                       X                                                             
                                                                       X                                                             
                                                                       X                                                             
                                                                       X                                                             
 
 ***** Axes restored to original set *****
 -------------------------------------------------------------------
 Center     Atomic                   Forces (Hartrees/Bohr)
 Number     Number              X              Y              Z
 -------------------------------------------------------------------
      1        6           0.000160636    0.000055718   -0.000285304
      2        8          -0.000039332   -0.000009809    0.000142846
      3        8          -0.000042512    0.000008539    0.000101279
      4        1           0.000010548    0.000075630    0.000060258
      5        1          -0.000089340   -0.000130078   -0.000019079
 -------------------------------------------------------------------
 Cartesian Forces:  Max     0.000285304 RMS     0.000109307
 Force constants in Cartesian coordinates: 
                1             2             3             4             5 
      1  0.463800D+00
      2 -0.150723D+00  0.600932D+00
      3  0.361720D+00 -0.652660D-02  0.773008D+00
      4 -0.300965D+00  0.143940D+00 -0.291500D+00  0.308678D+00
      5  0.151022D+00 -0.199499D+00  0.171167D+00 -0.204990D+00  0.223595D+00
      6 -0.287334D+00  0.159620D+00 -0.445767D+00  0.337979D+00 -0.220500D+00
      7 -0.910475D-01  0.466711D-01 -0.242484D-01 -0.423953D-02  0.562898D-01
      8  0.588830D-01 -0.262711D+00 -0.213612D-01  0.519236D-01 -0.474254D-01
      9 -0.172392D-01 -0.411582D-01 -0.111444D+00 -0.226230D-01  0.479843D-01
     10  0.115728D-01  0.560729D-02  0.140115D-01 -0.596422D-02 -0.179083D-02
     11 -0.181014D-01 -0.294767D-01 -0.493659D-01 -0.177053D-02  0.812388D-02
     12  0.345112D-03 -0.107161D-01 -0.687723D-03 -0.169375D-03  0.552637D-02
     13 -0.833606D-01 -0.454954D-01 -0.599837D-01  0.249017D-02 -0.531213D-03
     14 -0.410807D-01 -0.109245D+00 -0.939131D-01  0.108967D-01  0.152063D-01
     15 -0.574918D-01 -0.101219D+00 -0.215108D+00 -0.236866D-01 -0.417730D-02
                6             7             8             9            10 
      6  0.450445D+00
      7 -0.201292D-01  0.172061D+00
      8  0.409147D-01 -0.516602D-01  0.453448D+00
      9  0.189698D-01  0.185858D+00  0.154772D+00  0.431596D+00
     10 -0.171180D-03 -0.866984D-01 -0.688202D-01 -0.150985D+00  0.773314D-01
     11  0.555682D-02 -0.455205D-01 -0.117002D+00 -0.131011D+00  0.614652D-01
     12 -0.356912D-02 -0.137537D+00 -0.168979D+00 -0.339878D+00  0.139012D+00
     13 -0.303437D-01  0.992459D-02  0.967376D-02  0.498927D-02  0.375837D-02
     14  0.144091D-01 -0.578027D-02 -0.263102D-01 -0.305875D-01  0.353846D-02
     15 -0.200784D-01 -0.394295D-02 -0.534638D-02  0.756357D-03 -0.186803D-02
               11            12            13            14            15 
     11  0.143533D+00
     12  0.174960D+00  0.341107D+00
     13  0.392714D-02 -0.165114D-02  0.671875D-01
     14 -0.517845D-02 -0.790906D-03  0.324258D-01  0.125528D+00
     15 -0.140143D-03  0.302751D-02  0.869893D-01  0.110882D+00  0.231403D+00
 FormGI is forming the generalized inverse of G from B-inverse, IUseBI=4.
 Force constants in internal coordinates: 
                1             2             3             4             5 
      1  0.865404D+00
      2  0.874409D-01  0.397082D+00
      3  0.231657D-01  0.135520D-01  0.332499D+00
      4 -0.524705D-02  0.116429D-01 -0.124079D-02  0.497120D+00
      5  0.343251D-01  0.137296D-01 -0.142113D-01 -0.112048D-01  0.177774D+00
      6  0.915500D-02 -0.354233D-01  0.161474D-02  0.280713D-02 -0.857643D-01
      7 -0.434800D-01  0.216940D-01  0.125966D-01  0.839761D-02 -0.920096D-01
      8  0.393488D-02  0.324505D-01  0.381802D-02  0.270518D-01 -0.307873D-01
      9  0.386214D-04  0.424947D-04  0.115956D-04  0.225144D-05  0.763703D-04
     10  0.775680D-04  0.729678D-04  0.251053D-04  0.252654D-05  0.124916D-03
     11 -0.389466D-04 -0.304731D-04 -0.135098D-04  0.000000D+00 -0.485452D-04
                6             7             8             9            10 
      6  0.113385D+00
      7 -0.276217D-01  0.119631D+00
      8  0.423337D-02  0.265539D-01  0.172935D+00
      9 -0.497233D-04  0.148906D-04  0.183638D-04  0.202860D-01
     10 -0.950406D-04  0.531974D-04  0.446740D-05  0.193630D-01  0.387247D-01
     11  0.453173D-04 -0.383068D-04  0.138964D-04  0.922943D-03 -0.193617D-01
               11 
     11  0.202847D-01
 Leave Link  716 at Mon Aug  3 15:47:40 2020, MaxMem=   524288000 cpu:               0.2 elap:               0.0
 (Enter /home/ubuntu/g16/l103.exe)

 GradGradGradGradGradGradGradGradGradGradGradGradGradGradGradGradGradGrad
 Berny optimization.
 Red2BG is reusing G-inverse.
 Internal  Forces:  Max     0.000138077 RMS     0.000096967
 Search for a local minimum.
 Step number   1 out of a maximum of    2
 All quantities printed in internal units (Hartrees-Bohrs-Radians)
 Second derivative matrix not updated -- analytic derivatives used.
 The second derivative matrix:
                          R1        R2        R3        R4        A1
           R1           0.86540
           R2           0.08744   0.39708
           R3           0.02317   0.01355   0.33250
           R4          -0.00525   0.01164  -0.00124   0.49712
           A1           0.03433   0.01373  -0.01421  -0.01120   0.17777
           A2           0.00915  -0.03542   0.00161   0.00281  -0.08576
           A3          -0.04348   0.02169   0.01260   0.00840  -0.09201
           A4           0.00393   0.03245   0.00382   0.02705  -0.03079
           D1           0.00004   0.00004   0.00001   0.00000   0.00008
           D2           0.00008   0.00007   0.00003   0.00000   0.00012
           D3          -0.00004  -0.00003  -0.00001  -0.00000  -0.00005
                          A2        A3        A4        D1        D2
           A2           0.11339
           A3          -0.02762   0.11963
           A4           0.00423   0.02655   0.17293
           D1          -0.00005   0.00001   0.00002   0.02029
           D2          -0.00010   0.00005   0.00000   0.01936   0.03872
           D3           0.00005  -0.00004   0.00001   0.00092  -0.01936
                          D3
           D3           0.02028
 ITU=  0
     Eigenvalues ---    0.02121   0.05809   0.13086   0.15545   0.26959
     Eigenvalues ---    0.33611   0.39447   0.50268   0.88668
 Angle between quadratic step and forces=  43.58 degrees.
 Linear search not attempted -- first point.
 Iteration  1 RMS(Cart)=  0.00055806 RMS(Int)=  0.00000061
 Iteration  2 RMS(Cart)=  0.00000042 RMS(Int)=  0.00000043
 ITry= 1 IFail=0 DXMaxC= 9.47D-04 DCOld= 1.00D+10 DXMaxT= 3.00D-01 DXLimC= 3.00D+00 Rises=F
 Variable       Old X    -DE/DX   Delta X   Delta X   Delta X     New X
                                 (Linear)    (Quad)   (Total)
    R1        2.27674   0.00008   0.00000   0.00013   0.00013   2.27687
    R2        2.55002   0.00009   0.00000   0.00014   0.00014   2.55016
    R3        2.08486   0.00011   0.00000   0.00026   0.00026   2.08512
    R4        1.83892   0.00009   0.00000   0.00014   0.00014   1.83906
    A1        2.18271  -0.00014   0.00000  -0.00049  -0.00049   2.18222
    A2        2.18441   0.00001   0.00000  -0.00014  -0.00014   2.18426
    A3        1.91607   0.00013   0.00000   0.00063   0.00063   1.91670
    A4        1.87617   0.00008   0.00000   0.00023   0.00023   1.87640
    D1       -0.00115   0.00007   0.00000   0.00115   0.00115   0.00000
    D2        3.13932   0.00013   0.00000   0.00228   0.00228   3.14159
    D3       -3.14047  -0.00007   0.00000  -0.00113  -0.00113  -3.14159
         Item               Value     Threshold  Converged?
 Maximum Force            0.000138     0.000450     YES
 RMS     Force            0.000097     0.000300     YES
 Maximum Displacement     0.000947     0.001800     YES
 RMS     Displacement     0.000558     0.001200     YES
 Predicted change in Energy=-3.418007D-07
 Optimization completed.
    -- Stationary point found.
                           ----------------------------
                           !   Optimized Parameters   !
                           ! (Angstroms and Degrees)  !
 --------------------------                            --------------------------
 ! Name  Definition              Value          Derivative Info.                !
 --------------------------------------------------------------------------------
 ! R1    R(1,2)                  1.2048         -DE/DX =    0.0001              !
 ! R2    R(1,3)                  1.3494         -DE/DX =    0.0001              !
 ! R3    R(1,5)                  1.1033         -DE/DX =    0.0001              !
 ! R4    R(3,4)                  0.9731         -DE/DX =    0.0001              !
 ! A1    A(2,1,3)              125.0599         -DE/DX =   -0.0001              !
 ! A2    A(2,1,5)              125.1574         -DE/DX =    0.0                 !
 ! A3    A(3,1,5)              109.7826         -DE/DX =    0.0001              !
 ! A4    A(1,3,4)              107.4964         -DE/DX =    0.0001              !
 ! D1    D(2,1,3,4)             -0.0659         -DE/DX =    0.0001              !
 ! D2    D(2,1,3,5)            179.8695         -DE/DX =    0.0001              !
 ! D3    D(5,1,3,4)           -179.9354         -DE/DX =   -0.0001              !
 --------------------------------------------------------------------------------
 GradGradGradGradGradGradGradGradGradGradGradGradGradGradGradGradGradGrad

 Leave Link  103 at Mon Aug  3 15:47:40 2020, MaxMem=   524288000 cpu:               0.0 elap:               0.0
 (Enter /home/ubuntu/g16/l9999.exe)

 ----------------------------------------------------------------------

 Electric dipole moment (input orientation):
 (Debye = 10**-18 statcoulomb cm , SI units = C m)
                  (au)            (Debye)         (10**-30 SI)
   Tot        0.609878D+00      0.155016D+01      0.517076D+01
   x         -0.321335D+00     -0.816753D+00     -0.272439D+01
   y          0.445218D+00      0.113163D+01      0.377471D+01
   z         -0.265473D+00     -0.674765D+00     -0.225077D+01

 Dipole polarizability, Alpha (input orientation).
 (esu units = cm**3 , SI units = C**2 m**2 J**-1)
 Alpha(0;0):
               (au)            (10**-24 esu)      (10**-40 SI)
   iso        0.225643D+02      0.334369D+01      0.372036D+01
   aniso      0.105049D+02      0.155666D+01      0.173202D+01
   xx         0.196312D+02      0.290904D+01      0.323674D+01
   yx        -0.333977D+01     -0.494903D+00     -0.550654D+00
   yy         0.253659D+02      0.375884D+01      0.418227D+01
   zx         0.417055D+01      0.618012D+00      0.687631D+00
   zy         0.419258D-01      0.621277D-02      0.691264D-02
   zz         0.226960D+02      0.336320D+01      0.374206D+01

 ----------------------------------------------------------------------

 Dipole orientation:
     6          3.81471067         -7.03552989         -7.18449275
     8          3.78272195         -7.96890158         -9.26087013
     8          3.77145767         -8.33757692         -4.99236514
     1          3.70908409        -10.12663027         -5.41310290
     1          3.88816969         -4.98988062         -6.78882613

 Electric dipole moment (dipole orientation):
 (Debye = 10**-18 statcoulomb cm , SI units = C m)
                  (au)            (Debye)         (10**-30 SI)
   Tot        0.609878D+00      0.155016D+01      0.517076D+01
   x          0.000000D+00      0.000000D+00      0.000000D+00
   y          0.000000D+00      0.000000D+00      0.000000D+00
   z          0.609878D+00      0.155016D+01      0.517076D+01

 Dipole polarizability, Alpha (dipole orientation).
 (esu units = cm**3 , SI units = C**2 m**2 J**-1)
 Alpha(0;0):
               (au)            (10**-24 esu)      (10**-40 SI)
   iso        0.225643D+02      0.334369D+01      0.372036D+01
   aniso      0.105049D+02      0.155666D+01      0.173202D+01
   xx         0.158934D+02      0.235516D+01      0.262047D+01
   yx         0.284936D+00      0.422231D-01      0.469795D-01
   yy         0.240761D+02      0.356771D+01      0.396961D+01
   zx         0.233920D-02      0.346634D-03      0.385682D-03
   zy        -0.313436D-01     -0.464464D-02     -0.516786D-02
   zz         0.277235D+02      0.410820D+01      0.457099D+01

 ----------------------------------------------------------------------
 1\1\GINC-192-168-10-17\Freq\UB3LYP\Aug-CC-pVDZ\C1H2O2\UBUNTU\03-Aug-20
 20\0\\#P Geom=AllCheck Guess=TCheck SCRF=Check GenChk UB3LYP/Aug-CC-pV
 DZ Freq\\HOOCH_UB3LYP-aug-cc-pVDZ\\0,1\C,4.629073221,0.1062478468,3.30
 91734636\O,5.3267068728,-0.3898753678,4.1569414825\O,4.1840563986,1.38
 01305882,3.3192758831\H,4.5284476295,1.8039628076,4.1247022953\H,4.260
 0158782,-0.4110658747,2.4073068755\\Version=ES64L-G16RevA.03\State=1-A
 \HF=-189.7953632\S2=0.\S2-1=0.\S2A=0.\RMSD=4.146e-09\RMSF=1.093e-04\Ze
 roPoint=0.0335767\Thermal=0.0367535\Dipole=-0.3213353,0.4452179,-0.265
 4728\DipoleDeriv=0.7361959,-0.5751211,0.4293715,-0.5598712,1.5870527,-
 0.1501281,0.4383432,-0.175107,0.8813665,-0.6385603,0.3423425,-0.252792
 9,0.1765062,-0.7371922,0.0708523,-0.3478332,0.3401016,-0.7321991,-0.45
 70453,0.2474116,-0.0213911,0.3830803,-1.2198082,0.1246933,0.0564212,-0
 .0950897,-0.3191318,0.2898459,-0.0005149,-0.0739373,0.0094133,0.334192
 7,0.0148085,-0.0681865,-0.00127,0.2232512,0.0695637,-0.0141181,-0.0812
 502,-0.0091287,0.0357551,-0.060226,-0.0787447,-0.0686347,-0.0532868\Po
 lar=19.6311562,-3.3397689,25.365914,4.1705531,0.0419258,22.6959663\Qua
 drupole=-0.8788025,0.3866627,0.4921398,1.7063323,-0.869715,2.8499585\P
 G=C01 [X(C1H2O2)]\NImag=0\\0.46380004,-0.15072302,0.60093226,0.3617203
 1,-0.00652660,0.77300762,-0.30096470,0.14394006,-0.29149971,0.30867828
 ,0.15102201,-0.19949935,0.17116682,-0.20498979,0.22359466,-0.28733449,
 0.15961951,-0.44576733,0.33797862,-0.22050014,0.45044509,-0.09104752,0
 .04667110,-0.02424838,-0.00423953,0.05628982,-0.02012920,0.17206082,0.
 05888303,-0.26271071,-0.02136118,0.05192355,-0.04742545,0.04091470,-0.
 05166017,0.45344829,-0.01723917,-0.04115820,-0.11144437,-0.02262298,0.
 04798426,0.01896978,0.18585758,0.15477212,0.43159583,0.01157281,0.0056
 0729,0.01401146,-0.00596422,-0.00179083,-0.00017118,-0.08669835,-0.068
 82017,-0.15098470,0.07733140,-0.01810137,-0.02947673,-0.04936594,-0.00
 177053,0.00812388,0.00555682,-0.04552048,-0.11700197,-0.13101066,0.061
 46524,0.14353326,0.00034511,-0.01071610,-0.00068772,-0.00016937,0.0055
 2637,-0.00356912,-0.13753705,-0.16897927,-0.33987761,0.13901245,0.1749
 5991,0.34110694,-0.08336062,-0.04549544,-0.05998369,0.00249017,-0.0005
 3121,-0.03034375,0.00992459,0.00967376,0.00498927,0.00375837,0.0039271
 4,-0.00165114,0.06718750,-0.04108065,-0.10924547,-0.09391311,0.0108967
 0,0.01520625,0.01440911,-0.00578027,-0.02631017,-0.03058753,0.00353846
 ,-0.00517845,-0.00079091,0.03242576,0.12552783,-0.05749176,-0.10121861
 ,-0.21510819,-0.02368656,-0.00417730,-0.02007843,-0.00394295,-0.005346
 38,0.00075636,-0.00186803,-0.00014014,0.00302751,0.08698930,0.11088243
 ,0.23140275\\-0.00016064,-0.00005572,0.00028530,0.00003933,0.00000981,
 -0.00014285,0.00004251,-0.00000854,-0.00010128,-0.00001055,-0.00007563
 ,-0.00006026,0.00008934,0.00013008,0.00001908\\\@


 THE 2ND LAW OF THERMODYNAMICS HAS THE SAME
 DEGREE OF TRUTH AS THE STATEMENT THAT IF YOU THROW
 A TUMBLERFULL OF WATER INTO THE SEA, YOU CANNOT GET
 THE SAME TUMBLERFULL OF WATER OUT AGAIN.
          - J.C. MAXWELL, LETTER TO LORD RAYLEIGH, DECEMBER 6,1870
 Job cpu time:       0 days  0 hours  3 minutes  4.3 seconds.
 Elapsed time:       0 days  0 hours  0 minutes 26.4 seconds.
 File lengths (MBytes):  RWF=     12 Int=      0 D2E=      0 Chk=      2 Scr=      1
 Normal termination of Gaussian 16 at Mon Aug  3 15:47:40 2020.
