 Entering Gaussian System, Link 0=/home/ubuntu/g16/g16
 Input=HOOCCF3_UB3LYP-aug-cc-pVDZ-Opt.gjf
 Output=HOOCCF3_UB3LYP-aug-cc-pVDZ-Opt.log
 Initial command:
 /home/ubuntu/g16/l1.exe "/home/ubuntu/g16/Gau-29165.inp" -scrdir="/home/ubuntu/g16/"
 Entering Link 1 = /home/ubuntu/g16/l1.exe PID=     29167.
  
 Copyright (c) 1988,1990,1992,1993,1995,1998,2003,2009,2016,
            Gaussian, Inc.  All Rights Reserved.
  
 This is part of the Gaussian(R) 16 program.  It is based on
 the Gaussian(R) 09 system (copyright 2009, Gaussian, Inc.),
 the Gaussian(R) 03 system (copyright 2003, Gaussian, Inc.),
 the Gaussian(R) 98 system (copyright 1998, Gaussian, Inc.),
 the Gaussian(R) 94 system (copyright 1995, Gaussian, Inc.),
 the Gaussian 92(TM) system (copyright 1992, Gaussian, Inc.),
 the Gaussian 90(TM) system (copyright 1990, Gaussian, Inc.),
 the Gaussian 88(TM) system (copyright 1988, Gaussian, Inc.),
 the Gaussian 86(TM) system (copyright 1986, Carnegie Mellon
 University), and the Gaussian 82(TM) system (copyright 1983,
 Carnegie Mellon University). Gaussian is a federally registered
 trademark of Gaussian, Inc.
  
 This software contains proprietary and confidential information,
 including trade secrets, belonging to Gaussian, Inc.
  
 This software is provided under written license and may be
 used, copied, transmitted, or stored only in accord with that
 written license.
  
 The following legend is applicable only to US Government
 contracts under FAR:
  
                    RESTRICTED RIGHTS LEGEND
  
 Use, reproduction and disclosure by the US Government is
 subject to restrictions as set forth in subparagraphs (a)
 and (c) of the Commercial Computer Software - Restricted
 Rights clause in FAR 52.227-19.
  
 Gaussian, Inc.
 340 Quinnipiac St., Bldg. 40, Wallingford CT 06492
  
  
 ---------------------------------------------------------------
 Warning -- This program may not be used in any manner that
 competes with the business of Gaussian, Inc. or will provide
 assistance to any competitor of Gaussian, Inc.  The licensee
 of this program is prohibited from giving any competitor of
 Gaussian, Inc. access to this program.  By using this program,
 the user acknowledges that Gaussian, Inc. is engaged in the
 business of creating and licensing software in the field of
 computational chemistry and represents and warrants to the
 licensee that it is not a competitor of Gaussian, Inc. and that
 it will not use this program in any manner prohibited above.
 ---------------------------------------------------------------
  

 Cite this work as:
 Gaussian 16, Revision A.03,
 M. J. Frisch, G. W. Trucks, H. B. Schlegel, G. E. Scuseria, 
 M. A. Robb, J. R. Cheeseman, G. Scalmani, V. Barone, 
 G. A. Petersson, H. Nakatsuji, X. Li, M. Caricato, A. V. Marenich, 
 J. Bloino, B. G. Janesko, R. Gomperts, B. Mennucci, H. P. Hratchian, 
 J. V. Ortiz, A. F. Izmaylov, J. L. Sonnenberg, D. Williams-Young, 
 F. Ding, F. Lipparini, F. Egidi, J. Goings, B. Peng, A. Petrone, 
 T. Henderson, D. Ranasinghe, V. G. Zakrzewski, J. Gao, N. Rega, 
 G. Zheng, W. Liang, M. Hada, M. Ehara, K. Toyota, R. Fukuda, 
 J. Hasegawa, M. Ishida, T. Nakajima, Y. Honda, O. Kitao, H. Nakai, 
 T. Vreven, K. Throssell, J. A. Montgomery, Jr., J. E. Peralta, 
 F. Ogliaro, M. J. Bearpark, J. J. Heyd, E. N. Brothers, K. N. Kudin, 
 V. N. Staroverov, T. A. Keith, R. Kobayashi, J. Normand, 
 K. Raghavachari, A. P. Rendell, J. C. Burant, S. S. Iyengar, 
 J. Tomasi, M. Cossi, J. M. Millam, M. Klene, C. Adamo, R. Cammi, 
 J. W. Ochterski, R. L. Martin, K. Morokuma, O. Farkas, 
 J. B. Foresman, and D. J. Fox, Gaussian, Inc., Wallingford CT, 2016.
 
 ******************************************
 Gaussian 16:  ES64L-G16RevA.03 25-Dec-2016
                 1-Aug-2020 
 ******************************************
 %chk=HOOCCF3_UB3LYP-aug-cc-pVDZ-Opt.chk
 %mem=500MW
 %nproc=7
 Will use up to    7 processors via shared memory.
 ----------------------------------------------------------------------
 #p opt=(maxcycles=777) freq ub3lyp/aug-cc-pVDZ pop=(Bonding,AllOrbital
 s,mk,no,nboread)
 ----------------------------------------------------------------------
 1/6=777,18=20,19=15,26=3,38=1/1,3;
 2/9=110,12=2,17=6,18=5,40=1/2;
 3/5=16,7=10,11=2,25=1,30=1,71=1,74=-5,116=2/1,2,3;
 4//1;
 5/5=2,38=5/2;
 6/7=2,8=2,9=2,10=2,15=8,20=1,22=-1,27=20,28=1,31=1,40=2,96=-1/1,2,7;
 7//1,2,3,16;
 1/6=777,18=20,19=15,26=3/3(2);
 2/9=110/2;
 99//99;
 2/9=110/2;
 3/5=16,7=10,11=2,25=1,30=1,71=1,74=-5,116=2/1,2,3;
 4/5=5,16=3,69=1/1;
 5/5=2,38=5/2;
 7//1,2,3,16;
 1/6=777,18=20,19=15,26=3/3(-5);
 2/9=110/2;
 6/7=2,8=2,9=2,10=2,15=8,19=2,20=1,22=-1,27=20,28=1,31=1,40=2,96=-1/1,2,7;
 99/9=1/99;
 Leave Link    1 at Sat Aug  1 15:17:57 2020, MaxMem=   524288000 cpu:               0.2 elap:               0.0
 (Enter /home/ubuntu/g16/l101.exe)
 --------------------------
 HOOCCF3_UB3LYP-aug-cc-pVDZ
 --------------------------
 Symbolic Z-matrix:
 Charge =  0 Multiplicity = 1
 C                     6.76309   1.05122   0.57763 
 F                     7.67358   0.36717  -0.14738 
 F                     6.99296   2.37118   0.40618 
 F                     6.93768   0.75351   1.86926 
 C                     5.3247    0.69148   0.12577 
 O                     4.48972   0.24114   0.86186 
 O                     5.17415   0.96136  -1.17888 
 H                     4.2645    0.72685  -1.42874 
 
 ITRead=  0  0  0  0  0  0  0  0
 MicOpt= -1 -1 -1 -1 -1 -1 -1 -1
 NAtoms=      8 NQM=        8 NQMF=       0 NMMI=      0 NMMIF=      0
                NMic=       0 NMicF=      0.
                    Isotopes and Nuclear Properties:
 (Nuclear quadrupole moments (NQMom) in fm**2, nuclear magnetic moments (NMagM)
  in nuclear magnetons)

  Atom         1           2           3           4           5           6           7           8
 IAtWgt=          12          19          19          19          12          16          16           1
 AtmWgt=  12.0000000  18.9984033  18.9984033  18.9984033  12.0000000  15.9949146  15.9949146   1.0078250
 NucSpn=           0           1           1           1           0           0           0           1
 AtZEff=  -0.0000000  -0.0000000  -0.0000000  -0.0000000  -0.0000000  -0.0000000  -0.0000000  -0.0000000
 NQMom=    0.0000000   0.0000000   0.0000000   0.0000000   0.0000000   0.0000000   0.0000000   0.0000000
 NMagM=    0.0000000   2.6288670   2.6288670   2.6288670   0.0000000   0.0000000   0.0000000   2.7928460
 AtZNuc=   6.0000000   9.0000000   9.0000000   9.0000000   6.0000000   8.0000000   8.0000000   1.0000000
 Leave Link  101 at Sat Aug  1 15:17:57 2020, MaxMem=   524288000 cpu:               0.5 elap:               0.1
 (Enter /home/ubuntu/g16/l103.exe)

 GradGradGradGradGradGradGradGradGradGradGradGradGradGradGradGradGradGrad
 Berny optimization.
 Initialization pass.
                           ----------------------------
                           !    Initial Parameters    !
                           ! (Angstroms and Degrees)  !
 --------------------------                            --------------------------
 ! Name  Definition              Value          Derivative Info.                !
 --------------------------------------------------------------------------------
 ! R1    R(1,2)                  1.35           estimate D2E/DX2                !
 ! R2    R(1,3)                  1.3508         estimate D2E/DX2                !
 ! R3    R(1,4)                  1.3369         estimate D2E/DX2                !
 ! R4    R(1,5)                  1.55           estimate D2E/DX2                !
 ! R5    R(5,6)                  1.2008         estimate D2E/DX2                !
 ! R6    R(5,7)                  1.3408         estimate D2E/DX2                !
 ! R7    R(7,8)                  0.9721         estimate D2E/DX2                !
 ! A1    A(2,1,3)              108.1922         estimate D2E/DX2                !
 ! A2    A(2,1,4)              108.5378         estimate D2E/DX2                !
 ! A3    A(2,1,5)              110.5915         estimate D2E/DX2                !
 ! A4    A(3,1,4)              108.5424         estimate D2E/DX2                !
 ! A5    A(3,1,5)              110.3478         estimate D2E/DX2                !
 ! A6    A(4,1,5)              110.5571         estimate D2E/DX2                !
 ! A7    A(1,5,6)              123.6166         estimate D2E/DX2                !
 ! A8    A(1,5,7)              109.9472         estimate D2E/DX2                !
 ! A9    A(6,5,7)              126.436          estimate D2E/DX2                !
 ! A10   A(5,7,8)              107.8569         estimate D2E/DX2                !
 ! D1    D(2,1,5,6)            122.0298         estimate D2E/DX2                !
 ! D2    D(2,1,5,7)            -58.1125         estimate D2E/DX2                !
 ! D3    D(3,1,5,6)           -118.2975         estimate D2E/DX2                !
 ! D4    D(3,1,5,7)             61.5602         estimate D2E/DX2                !
 ! D5    D(4,1,5,6)              1.7897         estimate D2E/DX2                !
 ! D6    D(4,1,5,7)           -178.3525         estimate D2E/DX2                !
 ! D7    D(1,5,7,8)           -179.8983         estimate D2E/DX2                !
 ! D8    D(6,5,7,8)             -0.0456         estimate D2E/DX2                !
 --------------------------------------------------------------------------------
 Trust Radius=3.00D-01 FncErr=1.00D-07 GrdErr=1.00D-06 EigMax=2.50D+02 EigMin=1.00D-04
 Number of steps in this run=    100 maximum allowed number of steps=    100.
 GradGradGradGradGradGradGradGradGradGradGradGradGradGradGradGradGradGrad

 Leave Link  103 at Sat Aug  1 15:17:57 2020, MaxMem=   524288000 cpu:               0.1 elap:               0.0
 (Enter /home/ubuntu/g16/l202.exe)
                          Input orientation:                          
 ---------------------------------------------------------------------
 Center     Atomic      Atomic             Coordinates (Angstroms)
 Number     Number       Type             X           Y           Z
 ---------------------------------------------------------------------
      1          6           0        6.763090    1.051220    0.577630
      2          9           0        7.673580    0.367170   -0.147380
      3          9           0        6.992960    2.371180    0.406180
      4          9           0        6.937680    0.753510    1.869260
      5          6           0        5.324700    0.691480    0.125770
      6          8           0        4.489720    0.241140    0.861860
      7          8           0        5.174150    0.961360   -1.178880
      8          1           0        4.264500    0.726850   -1.428740
 ---------------------------------------------------------------------
                    Distance matrix (angstroms):
                    1          2          3          4          5
     1  C    0.000000
     2  F    1.350021   0.000000
     3  F    1.350752   2.187631   0.000000
     4  F    1.336945   2.181202   2.181860   0.000000
     5  C    1.550018   2.386844   2.383928   2.375986   0.000000
     6  O    2.430067   3.342366   3.318271   2.696273   1.200761
     7  O    2.370260   2.768430   2.794294   3.527662   1.340751
     8  H    3.220821   3.659656   3.676309   4.245398   1.881961
                    6          7          8
     6  O    0.000000
     7  O    2.269754   0.000000
     8  H    2.352336   0.972054   0.000000
 Stoichiometry    C2HF3O2
 Framework group  C1[X(C2HF3O2)]
 Deg. of freedom    18
 Full point group                 C1      NOp   1
 Largest Abelian subgroup         C1      NOp   1
 Largest concise Abelian subgroup C1      NOp   1
                         Standard orientation:                         
 ---------------------------------------------------------------------
 Center     Atomic      Atomic             Coordinates (Angstroms)
 Number     Number       Type             X           Y           Z
 ---------------------------------------------------------------------
      1          6           0       -0.598441   -0.000224   -0.000726
      2          9           0       -1.001738   -0.714842   -1.072747
      3          9           0       -1.001924   -0.647861    1.113858
      4          9           0       -1.195863    1.195246   -0.037603
      5          6           0        0.943124    0.161432   -0.001915
      6          8           0        1.499993    1.225256   -0.000938
      7          8           0        1.529475   -1.044306   -0.001009
      8          1           0        2.491885   -0.907732   -0.000148
 ---------------------------------------------------------------------
 Rotational constants (GHZ):           3.8052442           2.4630340           2.0454495
 Leave Link  202 at Sat Aug  1 15:17:57 2020, MaxMem=   524288000 cpu:               0.1 elap:               0.0
 (Enter /home/ubuntu/g16/l301.exe)
 Standard basis: Aug-CC-pVDZ (5D, 7F)
 Ernie: Thresh=  0.10000D-02 Tol=  0.10000D-05 Strict=F.
 Ernie:  14 primitive shells out of 182 were deleted.
 There are   184 symmetry adapted cartesian basis functions of A   symmetry.
 There are   170 symmetry adapted basis functions of A   symmetry.
   170 basis functions,   312 primitive gaussians,   184 cartesian basis functions
    28 alpha electrons       28 beta electrons
       nuclear repulsion energy       334.8078964871 Hartrees.
 IExCor=  402 DFT=T Ex+Corr=B3LYP ExCW=0 ScaHFX=  0.200000
 ScaDFX=  0.800000  0.720000  1.000000  0.810000 ScalE2=  1.000000  1.000000
 IRadAn=      5 IRanWt=     -1 IRanGd=            0 ICorTp=0 IEmpDi=  4
 NAtoms=    8 NActive=    8 NUniq=    8 SFac= 1.00D+00 NAtFMM=   60 NAOKFM=F Big=F
 Integral buffers will be    131072 words long.
 Raffenetti 2 integral format.
 Two-electron integral symmetry is turned on.
 Leave Link  301 at Sat Aug  1 15:17:57 2020, MaxMem=   524288000 cpu:               0.2 elap:               0.0
 (Enter /home/ubuntu/g16/l302.exe)
 NPDir=0 NMtPBC=     1 NCelOv=     1 NCel=       1 NClECP=     1 NCelD=      1
         NCelK=      1 NCelE2=     1 NClLst=     1 CellRange=     0.0.
 One-electron integrals computed using PRISM.
 One-electron integral symmetry used in STVInt
 NBasis=   170 RedAO= T EigKep=  1.11D-04  NBF=   170
 NBsUse=   170 1.00D-06 EigRej= -1.00D+00 NBFU=   170
 Precomputing XC quadrature grid using
 IXCGrd= 4 IRadAn=           5 IRanWt=          -1 IRanGd=           0 AccXCQ= 0.00D+00.
 Generated NRdTot=       0 NPtTot=           0 NUsed=           0 NTot=          32
 NSgBfM=   184   184   184   184   184 MxSgAt=     8 MxSgA2=     8.
 Leave Link  302 at Sat Aug  1 15:17:58 2020, MaxMem=   524288000 cpu:               1.5 elap:               0.2
 (Enter /home/ubuntu/g16/l303.exe)
 DipDrv:  MaxL=1.
 Leave Link  303 at Sat Aug  1 15:17:58 2020, MaxMem=   524288000 cpu:               0.3 elap:               0.1
 (Enter /home/ubuntu/g16/l401.exe)
 ExpMin= 2.97D-02 ExpMax= 1.47D+04 ExpMxC= 5.03D+02 IAcc=3 IRadAn=         5 AccDes= 0.00D+00
 Harris functional with IExCor=  402 and IRadAn=       5 diagonalized for initial guess.
 HarFok:  IExCor=  402 AccDes= 0.00D+00 IRadAn=         5 IDoV= 1 UseB2=F ITyADJ=14
 ICtDFT=  3500011 ScaDFX=  1.000000  1.000000  1.000000  1.000000
 FoFCou: FMM=F IPFlag=           0 FMFlag=      100000 FMFlg1=           0
         NFxFlg=           0 DoJE=T BraDBF=F KetDBF=T FulRan=T
         wScrn=  0.000000 ICntrl=       500 IOpCl=  0 I1Cent=   200000004 NGrid=           0
         NMat0=    1 NMatS0=      1 NMatT0=    0 NMatD0=    1 NMtDS0=    0 NMtDT0=    0
 Petite list used in FoFCou.
 Harris En= -526.859180547133    
 JPrj=0 DoOrth=F DoCkMO=F.
 Initial guess <Sx>= 0.0000 <Sy>= 0.0000 <Sz>= 0.0000 <S**2>=-0.0000 S=-0.0000
 Leave Link  401 at Sat Aug  1 15:17:59 2020, MaxMem=   524288000 cpu:               6.9 elap:               1.0
 (Enter /home/ubuntu/g16/l502.exe)
 Keep R1 and R2 ints in memory in canonical form, NReq=218368561.
 FoFCou: FMM=F IPFlag=           0 FMFlag=           0 FMFlg1=           0
         NFxFlg=           0 DoJE=F BraDBF=F KetDBF=F FulRan=T
         wScrn=  0.000000 ICntrl=       600 IOpCl=  0 I1Cent=           0 NGrid=           0
         NMat0=    1 NMatS0=  14535 NMatT0=    0 NMatD0=    1 NMtDS0=    0 NMtDT0=    0
 Symmetry not used in FoFCou.
 Two-electron integral symmetry not used.
 UHF open shell SCF:
 Using DIIS extrapolation, IDIIS=  1040.
 NGot=   524288000 LenX=   312936478 LenY=   312902181
 Requested convergence on RMS density matrix=1.00D-08 within 128 cycles.
 Requested convergence on MAX density matrix=1.00D-06.
 Requested convergence on             energy=1.00D-06.
 No special actions if energy rises.

 Cycle   1  Pass 1  IDiag  1:
 E= -526.724028555640    
 DIIS: error= 3.09D-02 at cycle   1 NSaved=   1.
 NSaved= 1 IEnMin= 1 EnMin= -526.724028555640     IErMin= 1 ErrMin= 3.09D-02
 ErrMax= 3.09D-02  0.00D+00 EMaxC= 1.00D-01 BMatC= 8.58D-01 BMatP= 8.58D-01
 IDIUse=3 WtCom= 6.91D-01 WtEn= 3.09D-01
 Coeff-Com:  0.100D+01
 Coeff-En:   0.100D+01
 Coeff:      0.100D+01
 Gap=     0.219 Goal=   None    Shift=    0.000
 Gap=     0.219 Goal=   None    Shift=    0.000
 GapD=    0.219 DampG=1.000 DampE=0.500 DampFc=0.5000 IDamp=-1.
 Damping current iteration by 5.00D-01
 RMSDP=5.36D-03 MaxDP=2.18D-01              OVMax= 2.78D-01

 Cycle   2  Pass 1  IDiag  1:
 E= -526.724235082264     Delta-E=       -0.000206526624 Rises=F Damp=T
 DIIS: error= 1.15D-02 at cycle   2 NSaved=   2.
 NSaved= 2 IEnMin= 2 EnMin= -526.724235082264     IErMin= 2 ErrMin= 1.15D-02
 ErrMax= 1.15D-02  0.00D+00 EMaxC= 1.00D-01 BMatC= 2.09D-01 BMatP= 8.58D-01
 IDIUse=3 WtCom= 8.85D-01 WtEn= 1.15D-01
 Coeff-Com:  0.311D+00 0.689D+00
 Coeff-En:   0.500D+00 0.500D+00
 Coeff:      0.333D+00 0.667D+00
 Gap=     0.267 Goal=   None    Shift=    0.000
 Gap=     0.267 Goal=   None    Shift=    0.000
 RMSDP=2.17D-03 MaxDP=1.03D-01 DE=-2.07D-04 OVMax= 1.98D-01

 Cycle   3  Pass 1  IDiag  1:
 E= -526.857582589737     Delta-E=       -0.133347507473 Rises=F Damp=F
 DIIS: error= 9.40D-03 at cycle   3 NSaved=   3.
 NSaved= 3 IEnMin= 3 EnMin= -526.857582589737     IErMin= 3 ErrMin= 9.40D-03
 ErrMax= 9.40D-03  0.00D+00 EMaxC= 1.00D-01 BMatC= 8.33D-02 BMatP= 2.09D-01
 IDIUse=3 WtCom= 9.06D-01 WtEn= 9.40D-02
 Coeff-Com:  0.167D+00 0.423D+00 0.410D+00
 Coeff-En:   0.000D+00 0.000D+00 0.100D+01
 Coeff:      0.151D+00 0.383D+00 0.465D+00
 Gap=     0.268 Goal=   None    Shift=    0.000
 Gap=     0.268 Goal=   None    Shift=    0.000
 RMSDP=7.93D-04 MaxDP=3.50D-02 DE=-1.33D-01 OVMax= 7.05D-02

 Cycle   4  Pass 1  IDiag  1:
 E= -526.870892639209     Delta-E=       -0.013310049472 Rises=F Damp=F
 DIIS: error= 3.88D-03 at cycle   4 NSaved=   4.
 NSaved= 4 IEnMin= 4 EnMin= -526.870892639209     IErMin= 4 ErrMin= 3.88D-03
 ErrMax= 3.88D-03  0.00D+00 EMaxC= 1.00D-01 BMatC= 1.48D-02 BMatP= 8.33D-02
 IDIUse=3 WtCom= 9.61D-01 WtEn= 3.88D-02
 Coeff-Com:  0.201D-01 0.807D-01 0.300D+00 0.599D+00
 Coeff-En:   0.000D+00 0.000D+00 0.182D+00 0.818D+00
 Coeff:      0.194D-01 0.775D-01 0.295D+00 0.608D+00
 Gap=     0.270 Goal=   None    Shift=    0.000
 Gap=     0.270 Goal=   None    Shift=    0.000
 RMSDP=2.63D-04 MaxDP=1.20D-02 DE=-1.33D-02 OVMax= 2.09D-02

 Cycle   5  Pass 1  IDiag  1:
 E= -526.873514884655     Delta-E=       -0.002622245446 Rises=F Damp=F
 DIIS: error= 4.90D-04 at cycle   5 NSaved=   5.
 NSaved= 5 IEnMin= 5 EnMin= -526.873514884655     IErMin= 5 ErrMin= 4.90D-04
 ErrMax= 4.90D-04  0.00D+00 EMaxC= 1.00D-01 BMatC= 4.22D-04 BMatP= 1.48D-02
 IDIUse=3 WtCom= 9.95D-01 WtEn= 4.90D-03
 Coeff-Com: -0.299D-02 0.498D-02 0.100D+00 0.277D+00 0.621D+00
 Coeff-En:   0.000D+00 0.000D+00 0.000D+00 0.000D+00 0.100D+01
 Coeff:     -0.298D-02 0.496D-02 0.996D-01 0.275D+00 0.623D+00
 Gap=     0.271 Goal=   None    Shift=    0.000
 Gap=     0.271 Goal=   None    Shift=    0.000
 RMSDP=6.92D-05 MaxDP=2.45D-03 DE=-2.62D-03 OVMax= 2.96D-03

 Cycle   6  Pass 1  IDiag  1:
 E= -526.873605478492     Delta-E=       -0.000090593837 Rises=F Damp=F
 DIIS: error= 1.01D-04 at cycle   6 NSaved=   6.
 NSaved= 6 IEnMin= 6 EnMin= -526.873605478492     IErMin= 6 ErrMin= 1.01D-04
 ErrMax= 1.01D-04  0.00D+00 EMaxC= 1.00D-01 BMatC= 1.88D-05 BMatP= 4.22D-04
 IDIUse=3 WtCom= 9.99D-01 WtEn= 1.01D-03
 Coeff-Com: -0.178D-02-0.177D-02 0.262D-01 0.761D-01 0.256D+00 0.645D+00
 Coeff-En:   0.000D+00 0.000D+00 0.000D+00 0.000D+00 0.000D+00 0.100D+01
 Coeff:     -0.178D-02-0.177D-02 0.262D-01 0.760D-01 0.256D+00 0.646D+00
 Gap=     0.271 Goal=   None    Shift=    0.000
 Gap=     0.271 Goal=   None    Shift=    0.000
 RMSDP=1.20D-05 MaxDP=4.03D-04 DE=-9.06D-05 OVMax= 3.87D-04

 Cycle   7  Pass 1  IDiag  1:
 E= -526.873609072035     Delta-E=       -0.000003593543 Rises=F Damp=F
 DIIS: error= 3.01D-05 at cycle   7 NSaved=   7.
 NSaved= 7 IEnMin= 7 EnMin= -526.873609072035     IErMin= 7 ErrMin= 3.01D-05
 ErrMax= 3.01D-05  0.00D+00 EMaxC= 1.00D-01 BMatC= 1.53D-06 BMatP= 1.88D-05
 IDIUse=1 WtCom= 1.00D+00 WtEn= 0.00D+00
 Coeff-Com: -0.744D-03-0.130D-02 0.923D-02 0.257D-01 0.103D+00 0.312D+00
 Coeff-Com:  0.553D+00
 Coeff:     -0.744D-03-0.130D-02 0.923D-02 0.257D-01 0.103D+00 0.312D+00
 Coeff:      0.553D+00
 Gap=     0.271 Goal=   None    Shift=    0.000
 Gap=     0.271 Goal=   None    Shift=    0.000
 RMSDP=3.05D-06 MaxDP=8.45D-05 DE=-3.59D-06 OVMax= 1.13D-04

 Cycle   8  Pass 1  IDiag  1:
 E= -526.873609321739     Delta-E=       -0.000000249705 Rises=F Damp=F
 DIIS: error= 1.05D-05 at cycle   8 NSaved=   8.
 NSaved= 8 IEnMin= 8 EnMin= -526.873609321739     IErMin= 8 ErrMin= 1.05D-05
 ErrMax= 1.05D-05  0.00D+00 EMaxC= 1.00D-01 BMatC= 1.47D-07 BMatP= 1.53D-06
 IDIUse=1 WtCom= 1.00D+00 WtEn= 0.00D+00
 Coeff-Com: -0.746D-04-0.388D-03 0.103D-02 0.168D-02 0.135D-01 0.484D-01
 Coeff-Com:  0.241D+00 0.695D+00
 Coeff:     -0.746D-04-0.388D-03 0.103D-02 0.168D-02 0.135D-01 0.484D-01
 Coeff:      0.241D+00 0.695D+00
 Gap=     0.271 Goal=   None    Shift=    0.000
 Gap=     0.271 Goal=   None    Shift=    0.000
 RMSDP=9.84D-07 MaxDP=2.68D-05 DE=-2.50D-07 OVMax= 3.36D-05

 Cycle   9  Pass 1  IDiag  1:
 E= -526.873609345987     Delta-E=       -0.000000024248 Rises=F Damp=F
 DIIS: error= 2.71D-06 at cycle   9 NSaved=   9.
 NSaved= 9 IEnMin= 9 EnMin= -526.873609345987     IErMin= 9 ErrMin= 2.71D-06
 ErrMax= 2.71D-06  0.00D+00 EMaxC= 1.00D-01 BMatC= 9.15D-09 BMatP= 1.47D-07
 IDIUse=1 WtCom= 1.00D+00 WtEn= 0.00D+00
 Coeff-Com:  0.312D-04-0.620D-04-0.152D-03-0.105D-02-0.158D-02-0.303D-02
 Coeff-Com:  0.529D-01 0.275D+00 0.678D+00
 Coeff:      0.312D-04-0.620D-04-0.152D-03-0.105D-02-0.158D-02-0.303D-02
 Coeff:      0.529D-01 0.275D+00 0.678D+00
 Gap=     0.271 Goal=   None    Shift=    0.000
 Gap=     0.271 Goal=   None    Shift=    0.000
 RMSDP=3.13D-07 MaxDP=1.15D-05 DE=-2.42D-08 OVMax= 1.16D-05

 Cycle  10  Pass 1  IDiag  1:
 E= -526.873609347622     Delta-E=       -0.000000001634 Rises=F Damp=F
 DIIS: error= 6.39D-07 at cycle  10 NSaved=  10.
 NSaved=10 IEnMin=10 EnMin= -526.873609347622     IErMin=10 ErrMin= 6.39D-07
 ErrMax= 6.39D-07  0.00D+00 EMaxC= 1.00D-01 BMatC= 4.99D-10 BMatP= 9.15D-09
 IDIUse=1 WtCom= 1.00D+00 WtEn= 0.00D+00
 Coeff-Com:  0.145D-04-0.800D-05-0.112D-03-0.491D-03-0.143D-02-0.413D-02
 Coeff-Com:  0.545D-02 0.597D-01 0.253D+00 0.688D+00
 Coeff:      0.145D-04-0.800D-05-0.112D-03-0.491D-03-0.143D-02-0.413D-02
 Coeff:      0.545D-02 0.597D-01 0.253D+00 0.688D+00
 Gap=     0.271 Goal=   None    Shift=    0.000
 Gap=     0.271 Goal=   None    Shift=    0.000
 RMSDP=6.83D-08 MaxDP=2.12D-06 DE=-1.63D-09 OVMax= 2.28D-06

 Cycle  11  Pass 1  IDiag  1:
 E= -526.873609347710     Delta-E=       -0.000000000088 Rises=F Damp=F
 DIIS: error= 2.27D-07 at cycle  11 NSaved=  11.
 NSaved=11 IEnMin=11 EnMin= -526.873609347710     IErMin=11 ErrMin= 2.27D-07
 ErrMax= 2.27D-07  0.00D+00 EMaxC= 1.00D-01 BMatC= 9.38D-11 BMatP= 4.99D-10
 IDIUse=1 WtCom= 1.00D+00 WtEn= 0.00D+00
 Coeff-Com:  0.561D-05-0.111D-05-0.434D-04-0.177D-03-0.624D-03-0.186D-02
 Coeff-Com: -0.689D-03 0.984D-02 0.818D-01 0.362D+00 0.550D+00
 Coeff:      0.561D-05-0.111D-05-0.434D-04-0.177D-03-0.624D-03-0.186D-02
 Coeff:     -0.689D-03 0.984D-02 0.818D-01 0.362D+00 0.550D+00
 Gap=     0.271 Goal=   None    Shift=    0.000
 Gap=     0.271 Goal=   None    Shift=    0.000
 RMSDP=2.24D-08 MaxDP=6.86D-07 DE=-8.82D-11 OVMax= 8.43D-07

 Cycle  12  Pass 1  IDiag  1:
 E= -526.873609347712     Delta-E=       -0.000000000002 Rises=F Damp=F
 DIIS: error= 7.73D-08 at cycle  12 NSaved=  12.
 NSaved=12 IEnMin=12 EnMin= -526.873609347712     IErMin=12 ErrMin= 7.73D-08
 ErrMax= 7.73D-08  0.00D+00 EMaxC= 1.00D-01 BMatC= 9.97D-12 BMatP= 9.38D-11
 IDIUse=1 WtCom= 1.00D+00 WtEn= 0.00D+00
 Coeff-Com:  0.774D-06 0.322D-06-0.970D-06-0.761D-05-0.786D-04-0.234D-03
 Coeff-Com: -0.110D-02-0.552D-02-0.150D-02 0.715D-01 0.271D+00 0.666D+00
 Coeff:      0.774D-06 0.322D-06-0.970D-06-0.761D-05-0.786D-04-0.234D-03
 Coeff:     -0.110D-02-0.552D-02-0.150D-02 0.715D-01 0.271D+00 0.666D+00
 Gap=     0.271 Goal=   None    Shift=    0.000
 Gap=     0.271 Goal=   None    Shift=    0.000
 RMSDP=8.93D-09 MaxDP=2.98D-07 DE=-1.93D-12 OVMax= 2.77D-07

 SCF Done:  E(UB3LYP) =  -526.873609348     A.U. after   12 cycles
            NFock= 12  Conv=0.89D-08     -V/T= 2.0056
 <Sx>= 0.0000 <Sy>= 0.0000 <Sz>= 0.0000 <S**2>=-0.0000 S=-0.0000
 <L.S>= 0.000000000000E+00
 KE= 5.239478665792D+02 PE=-1.916502575429D+03 EE= 5.308732030153D+02
 Annihilation of the first spin contaminant:
 S**2 before annihilation    -0.0000,   after     0.0000
 Leave Link  502 at Sat Aug  1 15:18:24 2020, MaxMem=   524288000 cpu:             164.3 elap:              25.6
 (Enter /home/ubuntu/g16/l601.exe)
 Copying SCF densities to generalized density rwf, IOpCl= 1 IROHF=0.

 **********************************************************************

            Population analysis using the SCF density.

 **********************************************************************

 Orbital symmetries:
 Alpha Orbitals:
       Occupied  (A) (A) (A) (A) (A) (A) (A) (A) (A) (A) (A) (A)
                 (A) (A) (A) (A) (A) (A) (A) (A) (A) (A) (A) (A)
                 (A) (A) (A) (A)
       Virtual   (A) (A) (A) (A) (A) (A) (A) (A) (A) (A) (A) (A)
                 (A) (A) (A) (A) (A) (A) (A) (A) (A) (A) (A) (A)
                 (A) (A) (A) (A) (A) (A) (A) (A) (A) (A) (A) (A)
                 (A) (A) (A) (A) (A) (A) (A) (A) (A) (A) (A) (A)
                 (A) (A) (A) (A) (A) (A) (A) (A) (A) (A) (A) (A)
                 (A) (A) (A) (A) (A) (A) (A) (A) (A) (A) (A) (A)
                 (A) (A) (A) (A) (A) (A) (A) (A) (A) (A) (A) (A)
                 (A) (A) (A) (A) (A) (A) (A) (A) (A) (A) (A) (A)
                 (A) (A) (A) (A) (A) (A) (A) (A) (A) (A) (A) (A)
                 (A) (A) (A) (A) (A) (A) (A) (A) (A) (A) (A) (A)
                 (A) (A) (A) (A) (A) (A) (A) (A) (A) (A) (A) (A)
                 (A) (A) (A) (A) (A) (A) (A) (A) (A) (A)
 Beta  Orbitals:
       Occupied  (A) (A) (A) (A) (A) (A) (A) (A) (A) (A) (A) (A)
                 (A) (A) (A) (A) (A) (A) (A) (A) (A) (A) (A) (A)
                 (A) (A) (A) (A)
       Virtual   (A) (A) (A) (A) (A) (A) (A) (A) (A) (A) (A) (A)
                 (A) (A) (A) (A) (A) (A) (A) (A) (A) (A) (A) (A)
                 (A) (A) (A) (A) (A) (A) (A) (A) (A) (A) (A) (A)
                 (A) (A) (A) (A) (A) (A) (A) (A) (A) (A) (A) (A)
                 (A) (A) (A) (A) (A) (A) (A) (A) (A) (A) (A) (A)
                 (A) (A) (A) (A) (A) (A) (A) (A) (A) (A) (A) (A)
                 (A) (A) (A) (A) (A) (A) (A) (A) (A) (A) (A) (A)
                 (A) (A) (A) (A) (A) (A) (A) (A) (A) (A) (A) (A)
                 (A) (A) (A) (A) (A) (A) (A) (A) (A) (A) (A) (A)
                 (A) (A) (A) (A) (A) (A) (A) (A) (A) (A) (A) (A)
                 (A) (A) (A) (A) (A) (A) (A) (A) (A) (A) (A) (A)
                 (A) (A) (A) (A) (A) (A) (A) (A) (A) (A)
 The electronic state is 1-A.
     Natural Orbital Coefficients:
                           1         2         3         4         5
     Eigenvalues --     2.00000   2.00000   2.00000   2.00000   2.00000
   1 1   C  1S          0.18120  -0.24233  -0.14254  -0.14592   0.09064
   2        2S         -0.24022   0.22751   0.10449   0.06210  -0.01557
   3        3S         -0.10347   0.17272   0.00395  -0.08099  -0.04654
   4        4S          0.02154  -0.01858  -0.01553  -0.04942   0.03165
   5        5PX         0.22692   0.20269   0.07402   0.04175  -0.08699
   6        5PY        -0.11051  -0.01450  -0.01516   0.09064   0.04133
   7        5PZ        -0.01583   0.00219  -0.01889  -0.01612  -0.02766
   8        6PX        -0.03429   0.14778   0.00990  -0.01282  -0.05450
   9        6PY        -0.00436  -0.00330  -0.01655  -0.01102   0.00056
  10        6PZ         0.00969   0.00011   0.01161   0.00007  -0.01931
  11        7PX         0.01215   0.00816   0.00020  -0.00105   0.00068
  12        7PY        -0.00163   0.00493   0.00015   0.01363  -0.00194
  13        7PZ         0.00036   0.00177  -0.00122  -0.00274   0.00235
  14        8D 0        0.00301   0.00270   0.00401  -0.02290   0.00865
  15        8D+1        0.00123  -0.00013  -0.00637  -0.00404   0.00322
  16        8D-1        0.00505  -0.00235   0.00784   0.00717  -0.00482
  17        8D+2        0.01479   0.00613   0.00329   0.00786   0.00941
  18        8D-2        0.01814   0.00830   0.00285  -0.01484  -0.00541
  19        9D 0        0.01815  -0.00848   0.00304   0.01264   0.00149
  20        9D+1       -0.00200   0.00029  -0.00370   0.00235  -0.00158
  21        9D-1       -0.00601  -0.00045  -0.00567   0.00393   0.00128
  22        9D+2       -0.02462   0.02721   0.00329   0.00748  -0.00475
  23        9D-2        0.00306  -0.00252  -0.00352   0.01162  -0.00450
  24 2   F  1S          0.02317   0.22315  -0.43422   0.11525   0.14364
  25        2S          0.11196   0.08276   0.01448   0.07251  -0.08249
  26        3S          0.12803   0.07296   0.03056   0.08330  -0.10050
  27        4S          0.00664   0.01640  -0.00091   0.00541  -0.02940
  28        5PX         0.00369   0.02410   0.06403  -0.02313  -0.05749
  29        5PY        -0.12530   0.02268   0.04855  -0.05996   0.14340
  30        5PZ        -0.10832   0.02947   0.02971  -0.03760  -0.02495
  31        6PX         0.00487   0.00641   0.03707  -0.00939  -0.04035
  32        6PY        -0.07479   0.01376   0.03115  -0.03256   0.08584
  33        6PZ        -0.06165   0.01817   0.01748  -0.01335  -0.02125
  34        7PX        -0.00761  -0.00646  -0.00156  -0.00885  -0.00557
  35        7PY        -0.00603  -0.00282   0.00167  -0.01314   0.00887
  36        7PZ        -0.00164   0.00274  -0.00020  -0.00517  -0.00840
  37        8D 0       -0.00231   0.00112   0.00053  -0.00055  -0.00154
  38        8D+1        0.00000   0.00305   0.00216  -0.00011  -0.00162
  39        8D-1       -0.00532   0.00213   0.00165  -0.00010   0.00166
  40        8D+2        0.00283   0.00010   0.00029   0.00049  -0.00181
  41        8D-2       -0.00033   0.00214   0.00168  -0.00011  -0.00017
  42        9D 0       -0.00220   0.00222   0.00001   0.00030  -0.00142
  43        9D+1        0.00212   0.00439   0.00255   0.00205  -0.00475
  44        9D-1       -0.00605   0.00436   0.00325   0.00179   0.00134
  45        9D+2        0.00347  -0.00027  -0.00028   0.00032  -0.00440
  46        9D-2        0.00084   0.00494   0.00300   0.00087  -0.00083
  47 3   F  1S         -0.02583  -0.22282   0.61196  -0.22526  -0.34048
  48        2S         -0.00573   0.02779  -0.00239   0.05066  -0.04695
  49        3S         -0.00150   0.02883  -0.03146   0.07762  -0.03227
  50        4S         -0.01758   0.00902  -0.01327   0.01032  -0.00707
  51        5PX        -0.01783   0.00656  -0.02947  -0.13869  -0.05844
  52        5PY        -0.10592   0.04034   0.05522  -0.06378   0.13292
  53        5PZ         0.12167  -0.06974  -0.02060   0.04055   0.03766
  54        6PX        -0.00867  -0.00455  -0.02215  -0.08309  -0.03641
  55        6PY        -0.06245   0.02499   0.03325  -0.03397   0.08553
  56        6PZ         0.06903  -0.04311  -0.01032   0.00982   0.02340
  57        7PX        -0.01016  -0.01053  -0.00851  -0.01961  -0.00393
  58        7PY        -0.00389   0.00060   0.00202  -0.01528   0.01516
  59        7PZ         0.00597  -0.00703   0.00329   0.00459   0.00312
  60        8D 0       -0.00350   0.00159   0.00039  -0.00050  -0.00129
  61        8D+1        0.00092  -0.00311  -0.00069   0.00173   0.00170
  62        8D-1        0.00620  -0.00211  -0.00117   0.00025  -0.00110
  63        8D+2        0.00258   0.00030  -0.00030  -0.00036  -0.00103
  64        8D-2       -0.00087   0.00185   0.00049  -0.00102  -0.00026
  65        9D 0       -0.00301   0.00270   0.00125   0.00325  -0.00148
  66        9D+1       -0.00152  -0.00411  -0.00125  -0.00042   0.00486
  67        9D-1        0.00599  -0.00491  -0.00206  -0.00202  -0.00318
  68        9D+2        0.00313   0.00052  -0.00122  -0.00207  -0.00317
  69        9D-2        0.00023   0.00406   0.00117  -0.00112  -0.00063
  70 4   F  1S         -0.07869  -0.11745   0.07093  -0.27821   0.38892
  71        2S          0.07053   0.06608   0.04058   0.09688  -0.05898
  72        3S          0.11816   0.08490   0.04971   0.12005  -0.08979
  73        4S          0.02974   0.03935   0.01914   0.03792  -0.01660
  74        5PX        -0.09781   0.06978   0.05519  -0.01294   0.00440
  75        5PY         0.38206   0.06360   0.04867  -0.11831  -0.05362
  76        5PZ        -0.01839  -0.04609   0.06820   0.07458  -0.10646
  77        6PX        -0.04294   0.04803   0.03881  -0.01074   0.00149
  78        6PY         0.20472   0.03098   0.02546  -0.07157  -0.02233
  79        6PZ        -0.01058  -0.02900   0.04272   0.04679  -0.06709
  80        7PX        -0.00826   0.00646   0.00690  -0.00311   0.00541
  81        7PY         0.01554   0.00147   0.00456  -0.01765   0.00250
  82        7PZ        -0.00003  -0.00537   0.00890   0.00890  -0.01210
  83        8D 0        0.00631  -0.00103  -0.00044  -0.00242  -0.00062
  84        8D+1       -0.00031  -0.00017   0.00030   0.00052  -0.00083
  85        8D-1        0.00082   0.00049  -0.00088  -0.00111   0.00157
  86        8D+2        0.00889   0.00129   0.00065  -0.00238  -0.00190
  87        8D-2        0.00701  -0.00333  -0.00166  -0.00277  -0.00024
  88        9D 0        0.00120  -0.00400  -0.00098  -0.00011   0.00241
  89        9D+1       -0.00044  -0.00079   0.00065   0.00084  -0.00233
  90        9D-1        0.00087   0.00111  -0.00108  -0.00185   0.00319
  91        9D+2        0.00726   0.00320   0.00135  -0.00240   0.00055
  92        9D-2       -0.00016  -0.00916  -0.00502  -0.00147   0.00157
  93 5   C  1S         -0.13405   0.04335  -0.46180  -0.07159  -0.35491
  94        2S          0.07025   0.02547   0.07926   0.18443   0.08170
  95        3S          0.18057  -0.10990   0.07644   0.16632   0.08932
  96        4S          0.02290   0.02746   0.02572   0.02635  -0.00587
  97        5PX        -0.03803  -0.22597  -0.02009  -0.01397   0.15557
  98        5PY        -0.06537  -0.06487  -0.08772  -0.19364  -0.11741
  99        5PZ         0.00218   0.01557  -0.06666  -0.02058   0.00811
 100        6PX        -0.04596  -0.00420  -0.03611  -0.05256  -0.01304
 101        6PY        -0.03037   0.05839   0.01323  -0.02679  -0.00055
 102        6PZ        -0.00109   0.00166  -0.02693  -0.00561   0.00125
 103        7PX         0.00526  -0.01663  -0.00303  -0.00320   0.01558
 104        7PY        -0.01089  -0.01911  -0.00576  -0.00355  -0.00548
 105        7PZ        -0.00048  -0.00169  -0.00058   0.00354  -0.00329
 106        8D 0        0.00242   0.00241  -0.00441  -0.01054  -0.00602
 107        8D+1        0.00094   0.00126  -0.00208  -0.00096   0.00206
 108        8D-1       -0.00599  -0.01086  -0.00262   0.01865  -0.01666
 109        8D+2       -0.00498   0.04323   0.01380  -0.01446  -0.00271
 110        8D-2       -0.00966  -0.00681  -0.00554  -0.01258  -0.01796
 111        9D 0       -0.00548   0.00813  -0.00315  -0.01001   0.00179
 112        9D+1        0.00054  -0.00009   0.00225   0.00351  -0.00234
 113        9D-1        0.00058  -0.00194   0.00180   0.00347  -0.00487
 114        9D+2       -0.02427   0.00421   0.02094   0.01781   0.02291
 115        9D-2        0.02429   0.03230   0.01490   0.00583   0.01339
 116 6   O  1S          0.01617   0.02392   0.02601   0.03091  -0.01765
 117        2S         -0.10976  -0.02014  -0.05307  -0.05537  -0.08382
 118        3S         -0.14232   0.00481  -0.06170  -0.06015  -0.10350
 119        4S         -0.02358   0.00918  -0.01291  -0.00202  -0.02337
 120        5PX        -0.05665   0.09557   0.06523   0.03761   0.05035
 121        5PY         0.00379   0.12672  -0.03558  -0.02136  -0.09746
 122        5PZ        -0.03226  -0.04841  -0.06951   0.09283  -0.08559
 123        6PX        -0.03631   0.03290   0.03336   0.02313   0.02825
 124        6PY        -0.00305   0.04060  -0.02711  -0.02127  -0.05274
 125        6PZ        -0.02143  -0.03154  -0.04222   0.06073  -0.05456
 126        7PX        -0.00785   0.01768   0.00803   0.00435  -0.00211
 127        7PY         0.00362   0.01148  -0.00013  -0.00364   0.00144
 128        7PZ        -0.00499  -0.00763  -0.00539   0.01364  -0.01143
 129        8D 0        0.00026   0.00371  -0.00016   0.00015  -0.00153
 130        8D+1        0.00045   0.00051   0.00171  -0.00103   0.00105
 131        8D-1        0.00066   0.00071   0.00315  -0.00163   0.00172
 132        8D+2        0.00130   0.00674  -0.00158  -0.00210  -0.00638
 133        8D-2        0.00025  -0.00372  -0.00169  -0.00212  -0.00198
 134        9D 0       -0.00538  -0.00937  -0.00337  -0.00143  -0.00125
 135        9D+1       -0.00002   0.00012   0.00053  -0.00071   0.00070
 136        9D-1        0.00050   0.00012   0.00281  -0.00081   0.00076
 137        9D+2       -0.00086   0.00053  -0.00392  -0.00890  -0.00728
 138        9D-2        0.00343   0.01172   0.00379   0.00369  -0.00177
 139 7   O  1S          0.07598  -0.02480  -0.04406  -0.09373   0.00476
 140        2S         -0.10157   0.01898   0.04923   0.12156   0.07895
 141        3S         -0.15017  -0.02016   0.03246   0.13868   0.04992
 142        4S         -0.06980  -0.05895  -0.01419   0.03005  -0.01200
 143        5PX        -0.00312   0.28671   0.02662  -0.27246  -0.01769
 144        5PY         0.14687   0.05461   0.10748   0.11866   0.22097
 145        5PZ         0.06857   0.13451  -0.03126  -0.21542   0.18993
 146        6PX         0.03147   0.08699   0.00159  -0.10591  -0.00701
 147        6PY         0.08142   0.05641   0.05803   0.03693   0.11040
 148        6PZ         0.04594   0.08916  -0.01787  -0.14288   0.12554
 149        7PX         0.00802   0.02634   0.00411  -0.02272   0.00248
 150        7PY         0.00689   0.00945   0.00492  -0.00008   0.00903
 151        7PZ         0.00889   0.01636   0.00079  -0.02521   0.02255
 152        8D 0       -0.00124  -0.00612  -0.00451  -0.00250  -0.00574
 153        8D+1        0.00048   0.00099   0.00021  -0.00146   0.00148
 154        8D-1        0.00147   0.00308  -0.00186  -0.00484   0.00412
 155        8D+2       -0.00379   0.00946  -0.00213  -0.01016  -0.00830
 156        8D-2       -0.00021   0.00603  -0.00126  -0.01194  -0.00128
 157        9D 0       -0.00449   0.00778   0.00281  -0.00223   0.00506
 158        9D+1        0.00121   0.00103   0.00168  -0.00109   0.00140
 159        9D-1        0.00204   0.00428  -0.00244  -0.00667   0.00548
 160        9D+2        0.00006  -0.02038  -0.00609   0.01489  -0.00861
 161        9D-2        0.00650  -0.01158  -0.00290   0.00150   0.00469
 162 8   H  1S         -0.02625   0.26807   0.05713  -0.16076   0.02811
 163        2S          0.03610   0.10409   0.01890  -0.05008  -0.00480
 164        3S         -0.00536   0.00005  -0.00177   0.00210  -0.00617
 165        4PX         0.00608  -0.02777  -0.00812   0.01275  -0.00839
 166        4PY         0.00524  -0.00258   0.00325   0.00712   0.00784
 167        4PZ         0.00253   0.00526  -0.00162  -0.00848   0.00758
 168        5PX        -0.00691  -0.02046  -0.00402   0.01042   0.00032
 169        5PY         0.00735   0.00553   0.00068  -0.00479   0.00151
 170        5PZ         0.00142   0.00316  -0.00116  -0.00591   0.00525
                           6         7         8         9        10
     Eigenvalues --     2.00000   2.00000   2.00000   2.00000   2.00000
   1 1   C  1S          0.06906  -0.02515  -0.06733   0.06507   0.01775
   2        2S         -0.08096   0.02105   0.03864  -0.07254   0.00230
   3        3S         -0.00457   0.08743  -0.13149  -0.08495   0.10940
   4        4S          0.06119  -0.00630  -0.04216   0.02361   0.01511
   5        5PX        -0.04576   0.03428   0.08364  -0.08466   0.03267
   6        5PY        -0.09708   0.03537   0.01186  -0.02436  -0.03882
   7        5PZ         0.06282  -0.00412   0.00011  -0.11306   0.19778
   8        6PX        -0.00015   0.06543  -0.06990  -0.04270   0.04247
   9        6PY        -0.00884   0.03693  -0.01830  -0.05038  -0.01266
  10        6PZ         0.02284   0.00600   0.00591  -0.01956   0.03556
  11        7PX         0.00009   0.00691  -0.00726  -0.00440   0.00187
  12        7PY        -0.00552   0.01360  -0.00514   0.00467  -0.00400
  13        7PZ        -0.00335   0.00347  -0.00043   0.00012   0.00535
  14        8D 0        0.01855  -0.01698  -0.00356  -0.00498   0.01310
  15        8D+1       -0.01005   0.00990   0.01593   0.00822   0.01118
  16        8D-1        0.01247  -0.01088  -0.00584   0.00181  -0.03122
  17        8D+2       -0.00402   0.01436  -0.01645  -0.01332   0.01016
  18        8D-2        0.01424  -0.00528   0.00946   0.00642  -0.00264
  19        9D 0       -0.01269  -0.00452   0.00525   0.00282   0.00412
  20        9D+1        0.00250  -0.00282   0.00241  -0.00343   0.00830
  21        9D-1        0.00220  -0.00572  -0.00397  -0.00774   0.00656
  22        9D+2       -0.00359   0.01615  -0.02297  -0.00326   0.01044
  23        9D-2       -0.02080   0.01563  -0.01681  -0.01948   0.00705
  24 2   F  1S         -0.05913  -0.32024  -0.08389   0.02891   0.11679
  25        2S          0.06711   0.04433   0.06457  -0.01505  -0.08809
  26        3S          0.07851   0.06650   0.08284  -0.03020  -0.09051
  27        4S          0.01564   0.02217   0.01925  -0.01954   0.00343
  28        5PX         0.04676  -0.19179  -0.03468   0.04058  -0.21508
  29        5PY        -0.02575  -0.05603  -0.08202   0.00031   0.01009
  30        5PZ         0.02937  -0.00078   0.06310   0.09674  -0.08191
  31        6PX         0.02794  -0.11993  -0.01581   0.02182  -0.13159
  32        6PY        -0.01394  -0.03382  -0.04774  -0.00629   0.01266
  33        6PZ         0.01615   0.00801   0.04595   0.04909  -0.04121
  34        7PX         0.01122  -0.02082  -0.00683   0.00449  -0.01606
  35        7PY         0.00860  -0.00988  -0.00523  -0.00702   0.00775
  36        7PZ         0.00858   0.00517   0.01074   0.00441  -0.00250
  37        8D 0        0.00146   0.00041   0.00112   0.00171  -0.00113
  38        8D+1        0.00067  -0.00203   0.00066   0.00071  -0.00367
  39        8D-1       -0.00098   0.00008  -0.00037   0.00139  -0.00276
  40        8D+2        0.00108  -0.00079   0.00018  -0.00070  -0.00037
  41        8D-2       -0.00009  -0.00154  -0.00021   0.00029  -0.00276
  42        9D 0        0.00074   0.00358   0.00223  -0.00098   0.00242
  43        9D+1       -0.00180  -0.00217   0.00402  -0.00130  -0.00224
  44        9D-1       -0.00065   0.00000   0.00002  -0.00263   0.00053
  45        9D+2        0.00219  -0.00149   0.00189  -0.00025  -0.00141
  46        9D-2       -0.00094  -0.00266   0.00012  -0.00048  -0.00492
  47 3   F  1S         -0.06452   0.15803  -0.13567   0.19355   0.20479
  48        2S         -0.03712   0.02353   0.05416   0.02100  -0.05840
  49        3S         -0.05012   0.01965   0.07071   0.02579  -0.10656
  50        4S         -0.01491   0.00353   0.00490   0.00608  -0.04717
  51        5PX         0.01726  -0.03550   0.14886  -0.07375   0.29944
  52        5PY         0.11639  -0.07403  -0.03758  -0.13853   0.16148
  53        5PZ        -0.03997   0.01059   0.05600  -0.00302  -0.06562
  54        6PX         0.00464  -0.02261   0.09751  -0.04336   0.17771
  55        6PY         0.06749  -0.04670  -0.01649  -0.07938   0.08599
  56        6PZ        -0.01256   0.00307   0.02970  -0.00927  -0.01394
  57        7PX         0.00562  -0.00583   0.00881  -0.00195   0.02046
  58        7PY         0.01329  -0.01068   0.00127  -0.00740   0.00606
  59        7PZ        -0.00036   0.00002   0.00910  -0.00451   0.00752
  60        8D 0        0.00074   0.00011  -0.00057   0.00121  -0.00024
  61        8D+1       -0.00041   0.00040  -0.00231   0.00193  -0.00505
  62        8D-1       -0.00149   0.00079   0.00133   0.00328  -0.00363
  63        8D+2       -0.00117   0.00078   0.00141   0.00097   0.00050
  64        8D-2        0.00053  -0.00047   0.00143  -0.00205   0.00377
  65        9D 0       -0.00223   0.00139  -0.00270   0.00279  -0.00771
  66        9D+1        0.00250   0.00063  -0.00550   0.00305  -0.00388
  67        9D-1        0.00142   0.00067  -0.00152   0.00127   0.00046
  68        9D+2       -0.00153   0.00103   0.00220   0.00111   0.00219
  69        9D-2        0.00034  -0.00003   0.00477  -0.00351   0.00517
  70 4   F  1S          0.29857   0.37862   0.35090  -0.43993  -0.22152
  71        2S         -0.08273   0.01199   0.07894  -0.02022  -0.02529
  72        3S         -0.09269  -0.00932   0.07642   0.00463  -0.01061
  73        4S         -0.01401   0.01460  -0.01496   0.00240   0.01981
  74        5PX         0.06452  -0.11079   0.20638   0.11576  -0.06295
  75        5PY         0.16838  -0.09699   0.10341   0.04287   0.04250
  76        5PZ         0.17656  -0.13209  -0.14237  -0.13768  -0.10615
  77        6PX         0.05108  -0.07544   0.13117   0.07959  -0.03543
  78        6PY         0.09798  -0.05483   0.06069   0.02469   0.02231
  79        6PZ         0.10993  -0.08335  -0.08959  -0.08523  -0.06819
  80        7PX         0.02101  -0.01247   0.01401   0.02354  -0.00179
  81        7PY         0.01755  -0.01583   0.01767   0.00288  -0.00183
  82        7PZ         0.01728  -0.01383  -0.01538  -0.01070  -0.01813
  83        8D 0        0.00267  -0.00086  -0.00038  -0.00001   0.00116
  84        8D+1        0.00143  -0.00092  -0.00059  -0.00140   0.00025
  85        8D-1       -0.00296   0.00188   0.00200   0.00293  -0.00000
  86        8D+2        0.00313  -0.00190   0.00335   0.00106   0.00034
  87        8D-2        0.00268   0.00025  -0.00294  -0.00016   0.00162
  88        9D 0        0.00145  -0.00052  -0.00131   0.00060   0.00090
  89        9D+1        0.00308  -0.00129  -0.00087  -0.00350   0.00256
  90        9D-1       -0.00496   0.00358   0.00340   0.00499   0.00014
  91        9D+2        0.00513  -0.00177   0.00322   0.00197   0.00087
  92        9D-2       -0.00015   0.00323  -0.00766  -0.00082   0.00084
  93 5   C  1S          0.30067   0.56018  -0.17452   0.18212  -0.06075
  94        2S         -0.04561   0.07990   0.06541   0.02585  -0.04974
  95        3S         -0.10772  -0.02427   0.16042  -0.00166  -0.08284
  96        4S         -0.03696   0.01959   0.01821  -0.02491  -0.01208
  97        5PX         0.08241  -0.08470  -0.01804   0.13679  -0.04749
  98        5PY        -0.03676  -0.13147   0.18153   0.02243  -0.16128
  99        5PZ        -0.04415   0.04370   0.12661   0.02643   0.17236
 100        6PX         0.02997   0.03013  -0.09146   0.00212   0.04423
 101        6PY         0.06471  -0.01670   0.02388   0.05203   0.00110
 102        6PZ        -0.01347   0.01652   0.05076   0.00430   0.06933
 103        7PX         0.02014   0.00288  -0.01341   0.01149  -0.00020
 104        7PY        -0.00695  -0.01624   0.02204   0.00080  -0.00122
 105        7PZ         0.00406  -0.00258   0.00189  -0.00282   0.00183
 106        8D 0       -0.00190  -0.00001  -0.00532  -0.00747   0.00312
 107        8D+1       -0.00527   0.00246   0.00528   0.00649   0.00001
 108        8D-1        0.01890  -0.00892   0.00792  -0.01920   0.01226
 109        8D+2       -0.00657  -0.00367  -0.00303  -0.01597   0.00133
 110        8D-2       -0.01918  -0.01708   0.02920  -0.00425  -0.01284
 111        9D 0        0.01419   0.00651  -0.01107   0.00090   0.00437
 112        9D+1        0.00186  -0.00247  -0.00223   0.00095  -0.00655
 113        9D-1        0.00621  -0.00191   0.00144  -0.00406   0.00091
 114        9D+2        0.00162  -0.02779   0.03864   0.02654  -0.02773
 115        9D-2        0.01335   0.02844  -0.03268  -0.02237   0.01720
 116 6   O  1S          0.11224  -0.04683  -0.03687  -0.01776   0.10399
 117        2S         -0.08852  -0.06145   0.00857  -0.02831  -0.07226
 118        3S         -0.10117  -0.05191  -0.03471  -0.05269  -0.04642
 119        4S         -0.03108  -0.00279  -0.03825  -0.03363   0.01460
 120        5PX        -0.04417  -0.01477  -0.05096  -0.03669   0.08673
 121        5PY         0.01533   0.10418  -0.20937  -0.11042   0.11471
 122        5PZ         0.06521  -0.01607   0.14812  -0.07748   0.19512
 123        6PX        -0.03662  -0.02362   0.00233  -0.01191   0.03426
 124        6PY         0.00498   0.03827  -0.08324  -0.04391   0.02808
 125        6PZ         0.04273  -0.01282   0.08840  -0.05023   0.11628
 126        7PX        -0.00999  -0.00329   0.01123  -0.00118   0.00548
 127        7PY         0.01394   0.01160  -0.01779   0.00088   0.00198
 128        7PZ         0.01038  -0.00420   0.01241  -0.01131   0.01521
 129        8D 0        0.00068   0.00287  -0.00578  -0.00284   0.00478
 130        8D+1       -0.00049  -0.00021  -0.00328   0.00093  -0.00461
 131        8D-1       -0.00037  -0.00068  -0.00634   0.00103  -0.00837
 132        8D+2        0.00036   0.00409  -0.00446  -0.00488   0.00324
 133        8D-2       -0.00133  -0.00269   0.00784   0.00218  -0.00733
 134        9D 0       -0.00353  -0.00532   0.00685   0.00283  -0.00707
 135        9D+1        0.00003  -0.00001  -0.00162  -0.00041  -0.00105
 136        9D-1        0.00043  -0.00061  -0.00505   0.00016  -0.00662
 137        9D+2       -0.00065  -0.00337   0.00444  -0.00011  -0.00620
 138        9D-2       -0.00123   0.00697  -0.00670  -0.00595   0.00601
 139 7   O  1S         -0.15171  -0.07915  -0.11859  -0.03361   0.09479
 140        2S          0.23844  -0.01634   0.08435   0.25405   0.07999
 141        3S          0.23658  -0.03127   0.14623   0.27201   0.07839
 142        4S          0.01439  -0.05485   0.09597   0.07605  -0.00571
 143        5PX         0.12876  -0.04908  -0.10361  -0.01428  -0.06744
 144        5PY         0.03567   0.12344  -0.25978  -0.03507   0.02353
 145        5PZ        -0.25333   0.13129   0.02958   0.24943  -0.00383
 146        6PX         0.01131  -0.00386  -0.06501  -0.04690  -0.03191
 147        6PY         0.02493   0.06621  -0.15149  -0.03111   0.00616
 148        6PZ        -0.16629   0.08587   0.01494   0.16440  -0.00780
 149        7PX         0.01983  -0.00045  -0.01674  -0.00166   0.00312
 150        7PY         0.00818   0.00145  -0.01287   0.00452  -0.00407
 151        7PZ        -0.02774   0.01315  -0.00437   0.02899  -0.01137
 152        8D 0       -0.00458  -0.00172   0.00422  -0.00243  -0.00103
 153        8D+1       -0.00169   0.00058  -0.00080   0.00182  -0.00159
 154        8D-1       -0.00613   0.00352   0.00289   0.00575   0.00291
 155        8D+2        0.00339  -0.00285   0.00304  -0.00020  -0.00066
 156        8D-2        0.00378  -0.00282  -0.00404  -0.00091  -0.00345
 157        9D 0        0.01094  -0.00068  -0.00369   0.00688   0.00115
 158        9D+1       -0.00080  -0.00027  -0.00234   0.00238  -0.00547
 159        9D-1       -0.00804   0.00469   0.00390   0.00752   0.00433
 160        9D+2       -0.01742   0.00218   0.00892  -0.00600   0.00463
 161        9D-2       -0.00449   0.00361  -0.00895  -0.00487  -0.00213
 162 8   H  1S          0.18839  -0.02940  -0.07433   0.07009  -0.02000
 163        2S          0.01738   0.03118  -0.05722  -0.04978   0.00498
 164        3S         -0.01019  -0.00234   0.00543  -0.00446  -0.00149
 165        4PX        -0.03051   0.00363   0.00671  -0.01780  -0.00019
 166        4PY        -0.00333   0.00436  -0.00803  -0.00328   0.00181
 167        4PZ        -0.01032   0.00532   0.00147   0.00980   0.00046
 168        5PX        -0.01210  -0.00559   0.00815   0.00587  -0.00430
 169        5PY         0.00133   0.00484  -0.00928  -0.00827   0.00499
 170        5PZ        -0.00686   0.00356   0.00088   0.00624   0.00040
                          11        12        13        14        15
     Eigenvalues --     2.00000   2.00000   2.00000   2.00000   2.00000
   1 1   C  1S         -0.04514   0.04225  -0.04928  -0.00838  -0.04985
   2        2S          0.03510  -0.00934   0.05020   0.00101   0.02096
   3        3S         -0.14091   0.15665  -0.09023   0.02373  -0.01790
   4        4S         -0.01340   0.00857  -0.06673   0.00716  -0.02010
   5        5PX        -0.06337   0.07166   0.00623   0.00216   0.02241
   6        5PY        -0.02554   0.04449   0.05115   0.02112  -0.04289
   7        5PZ        -0.17575  -0.20183   0.06915   0.00767   0.05118
   8        6PX        -0.08177   0.07513  -0.07093   0.01941  -0.02010
   9        6PY         0.01277  -0.00064  -0.01543   0.01459  -0.02808
  10        6PZ         0.02177  -0.05415  -0.01319  -0.02204  -0.00126
  11        7PX        -0.01110   0.00385  -0.01583   0.01200  -0.00138
  12        7PY        -0.01695   0.00248  -0.01391   0.00834  -0.00491
  13        7PZ        -0.00170  -0.00727   0.00040  -0.00398   0.00338
  14        8D 0        0.03221  -0.00958   0.01775  -0.01501   0.00300
  15        8D+1        0.02609   0.01356  -0.00928   0.00931  -0.00450
  16        8D-1        0.02074   0.01257  -0.00068  -0.00009  -0.02011
  17        8D+2        0.00189  -0.00753  -0.01618   0.01283   0.00020
  18        8D-2       -0.00046  -0.00762   0.00088   0.02034   0.00664
  19        9D 0       -0.00281   0.01273   0.01742  -0.00842   0.00376
  20        9D+1       -0.00294   0.00006  -0.00515  -0.00023   0.01099
  21        9D-1       -0.02422   0.00082   0.00867   0.00761   0.00878
  22        9D+2       -0.01745   0.01519  -0.01625   0.00394  -0.00562
  23        9D-2       -0.00749   0.01178  -0.00495  -0.00635  -0.00634
  24 2   F  1S         -0.12691  -0.01361   0.02577   0.18193   0.13234
  25        2S          0.22857  -0.21292  -0.02966  -0.05913  -0.12495
  26        3S          0.25373  -0.26878  -0.02873  -0.07791  -0.14495
  27        4S          0.04327  -0.06329  -0.01218  -0.01237  -0.02591
  28        5PX         0.13944   0.12023  -0.00591  -0.33298  -0.00356
  29        5PY         0.31294   0.08336   0.03311  -0.10411   0.29424
  30        5PZ        -0.00119   0.12295  -0.00694   0.19813  -0.21495
  31        6PX         0.08973   0.06761  -0.00378  -0.21751  -0.00091
  32        6PY         0.19001   0.03376   0.02511  -0.06919   0.19188
  33        6PZ        -0.01316   0.05675   0.00288   0.12386  -0.14011
  34        7PX         0.01818   0.00349  -0.00547  -0.04097  -0.00084
  35        7PY         0.03348  -0.00692   0.00469  -0.01253   0.03754
  36        7PZ         0.00166   0.00568  -0.00206   0.02575  -0.03332
  37        8D 0       -0.00045  -0.00076  -0.00105   0.00302  -0.00271
  38        8D+1        0.00322   0.00228  -0.00027  -0.00320  -0.00124
  39        8D-1        0.00756   0.00190  -0.00063  -0.00006  -0.00007
  40        8D+2       -0.00330  -0.00054  -0.00003  -0.00047  -0.00125
  41        8D-2        0.00376   0.00176   0.00020  -0.00297   0.00080
  42        9D 0       -0.00625  -0.00467   0.00129   0.00909  -0.00994
  43        9D+1        0.00187   0.00192   0.00035  -0.00786  -0.00241
  44        9D-1        0.00390  -0.00296   0.00477   0.00020   0.00333
  45        9D+2       -0.00274   0.00214  -0.00133  -0.00232  -0.00575
  46        9D-2        0.00407   0.00299   0.00092  -0.00667   0.00542
  47 3   F  1S          0.09393  -0.07613  -0.00780   0.10625   0.02674
  48        2S         -0.09001   0.05396   0.05588   0.10645   0.05710
  49        3S         -0.08632   0.08154   0.06089   0.11769   0.05246
  50        4S         -0.01930   0.03468   0.00959   0.02755   0.00061
  51        5PX         0.08685  -0.11999   0.10631  -0.14042   0.01380
  52        5PY         0.08071  -0.15074   0.23999   0.02730  -0.30563
  53        5PZ         0.12760   0.17842   0.07919   0.07401  -0.29050
  54        6PX         0.05660  -0.07057   0.07216  -0.09085   0.00350
  55        6PY         0.05909  -0.08154   0.15173   0.02256  -0.20201
  56        6PZ         0.06841   0.09010   0.05344   0.04472  -0.17781
  57        7PX         0.01521  -0.00763   0.01067  -0.01596  -0.00649
  58        7PY         0.01634  -0.00809   0.02516   0.00665  -0.03994
  59        7PZ         0.01931   0.00495   0.00939   0.00331  -0.03351
  60        8D 0       -0.00264  -0.00230  -0.00190   0.00034   0.00459
  61        8D+1        0.00085   0.00280  -0.00158   0.00174  -0.00238
  62        8D-1        0.00151   0.00537  -0.00329  -0.00017   0.00008
  63        8D+2        0.00029   0.00128  -0.00177  -0.00049   0.00179
  64        8D-2        0.00020  -0.00210   0.00239  -0.00041  -0.00055
  65        9D 0        0.00086   0.00221  -0.00739  -0.00076   0.01072
  66        9D+1       -0.00042   0.00113  -0.00265   0.00586  -0.00331
  67        9D-1       -0.00394  -0.00087  -0.00516  -0.00206   0.00471
  68        9D+2       -0.00133   0.00021  -0.00248  -0.00460   0.00627
  69        9D-2        0.00114  -0.00069   0.00591   0.00186  -0.00532
  70 4   F  1S         -0.10005   0.03892  -0.13723  -0.06840   0.06280
  71        2S         -0.06712   0.04299   0.03791  -0.07577   0.04795
  72        3S         -0.07098   0.04364   0.04843  -0.08691   0.05953
  73        4S         -0.02558   0.01770  -0.00717  -0.01973   0.01040
  74        5PX        -0.01495   0.08560   0.25171   0.00146  -0.00603
  75        5PY        -0.00979   0.01727   0.09194   0.00921   0.07221
  76        5PZ        -0.11124  -0.14141   0.06689  -0.06778   0.20730
  77        6PX        -0.00595   0.05041   0.16010  -0.00040   0.00017
  78        6PY        -0.01026   0.01901   0.05931   0.00788   0.03804
  79        6PZ        -0.06800  -0.08636   0.04098  -0.04301   0.13600
  80        7PX        -0.00203   0.00665   0.02156  -0.00078  -0.00005
  81        7PY         0.01097  -0.00296   0.02077   0.00528   0.00685
  82        7PZ        -0.00241  -0.00784   0.00241  -0.00941   0.02543
  83        8D 0        0.00017  -0.00044  -0.00053  -0.00018   0.00061
  84        8D+1       -0.00126  -0.00163   0.00081  -0.00023   0.00122
  85        8D-1        0.00342   0.00378  -0.00181   0.00072  -0.00173
  86        8D+2       -0.00125   0.00105   0.00170   0.00046   0.00090
  87        8D-2        0.00040  -0.00194  -0.00404   0.00040   0.00049
  88        9D 0       -0.00019   0.00040   0.00062  -0.00026  -0.00007
  89        9D+1       -0.00173  -0.00392   0.00118  -0.00026   0.00560
  90        9D-1        0.00474   0.00548  -0.00237   0.00120  -0.00790
  91        9D+2       -0.00182   0.00448   0.00477   0.00037  -0.00073
  92        9D-2       -0.00138  -0.00170  -0.00826   0.00039  -0.00153
  93 5   C  1S          0.11055   0.06439   0.35349  -0.09047   0.08936
  94        2S          0.04526  -0.14039   0.00876   0.14007   0.07608
  95        3S          0.12885  -0.13712   0.17659   0.09339   0.10175
  96        4S          0.01538  -0.00523   0.06992   0.05408   0.03919
  97        5PX         0.11100  -0.09605   0.09437   0.03187   0.04968
  98        5PY         0.04532  -0.12799   0.00225   0.14046   0.05611
  99        5PZ         0.12311   0.04586  -0.10790   0.02677   0.06835
 100        6PX        -0.05146   0.07784  -0.01536  -0.00749  -0.01266
 101        6PY        -0.02451   0.01680  -0.01566   0.03047   0.00490
 102        6PZ         0.04589   0.02212  -0.03439   0.02325   0.01536
 103        7PX         0.00814  -0.01046  -0.01925  -0.00035  -0.00800
 104        7PY         0.00980  -0.00190   0.02105  -0.01534   0.00626
 105        7PZ         0.00334   0.00413  -0.00399   0.00256   0.00259
 106        8D 0       -0.00528   0.01175  -0.00095  -0.00188  -0.00278
 107        8D+1        0.01166   0.00896  -0.00806  -0.00080   0.00213
 108        8D-1        0.01844   0.01844  -0.01378   0.01602   0.00738
 109        8D+2       -0.00124   0.02526   0.02297   0.01138   0.01013
 110        8D-2        0.00060  -0.00933   0.01578   0.00592   0.01129
 111        9D 0       -0.00198  -0.00001  -0.01488   0.00182  -0.00450
 112        9D+1        0.00626   0.00391  -0.00685  -0.00581   0.00503
 113        9D-1        0.00865   0.00009  -0.00405   0.00011  -0.00105
 114        9D+2        0.02914  -0.03733   0.02001   0.01263   0.01742
 115        9D-2       -0.00540   0.01777  -0.01918   0.00615  -0.01182
 116 6   O  1S          0.02795   0.22863   0.12180  -0.02517  -0.15424
 117        2S          0.01810  -0.15862  -0.14497  -0.01557  -0.04684
 118        3S         -0.00726  -0.14228  -0.19934  -0.08561  -0.08240
 119        4S         -0.00860   0.00423  -0.04618  -0.07156  -0.04109
 120        5PX        -0.04834   0.16468   0.17248  -0.07242   0.02549
 121        5PY        -0.08628   0.10764  -0.21539  -0.18778  -0.16241
 122        5PZ         0.21811   0.16539  -0.17690   0.11131   0.10330
 123        6PX        -0.01679   0.07497   0.12317  -0.02753   0.03018
 124        6PY        -0.01900   0.01358  -0.10654  -0.07114  -0.07124
 125        6PZ         0.13215   0.10553  -0.10867   0.06997   0.06628
 126        7PX        -0.01442   0.01899   0.02692   0.00636   0.01106
 127        7PY        -0.00148  -0.00409  -0.02661   0.00645  -0.00855
 128        7PZ         0.02182   0.02123  -0.01647   0.01470   0.00889
 129        8D 0       -0.00308   0.00610  -0.00196  -0.00600  -0.00346
 130        8D+1       -0.00385  -0.00252   0.00328  -0.00194  -0.00200
 131        8D-1       -0.00795  -0.00501   0.00664  -0.00312  -0.00396
 132        8D+2       -0.00406   0.00470  -0.00772  -0.00508  -0.00537
 133        8D-2        0.00322  -0.01026  -0.00360   0.00801   0.00262
 134        9D 0        0.00644  -0.00994   0.00320   0.00154   0.00263
 135        9D+1       -0.00422  -0.00226   0.00328   0.00029  -0.00250
 136        9D-1       -0.00562  -0.00383   0.00520  -0.00202  -0.00384
 137        9D+2        0.00139  -0.00361  -0.00093   0.00420   0.00087
 138        9D-2       -0.00701   0.00766  -0.00776  -0.00103  -0.00354
 139 7   O  1S          0.00536   0.04951   0.06821   0.05184   0.03792
 140        2S         -0.08631  -0.03091  -0.13960  -0.09639  -0.03999
 141        3S         -0.10948  -0.04225  -0.15179  -0.14300  -0.06132
 142        4S         -0.02259  -0.01097   0.00721  -0.06479  -0.00416
 143        5PX         0.03020   0.04513  -0.08625   0.18824   0.03849
 144        5PY         0.11058  -0.03251  -0.01831   0.10053   0.01830
 145        5PZ        -0.05968  -0.12658   0.02520  -0.16382  -0.00560
 146        6PX         0.03059   0.01661  -0.01059   0.08319   0.01793
 147        6PY         0.05637  -0.01713  -0.03709   0.07141   0.00437
 148        6PZ        -0.04378  -0.08872   0.02044  -0.11169  -0.00479
 149        7PX         0.00375   0.00770  -0.00730   0.01238   0.00309
 150        7PY         0.00265  -0.00148  -0.01341   0.00716  -0.00177
 151        7PZ        -0.01341  -0.02078   0.00863  -0.02459  -0.00566
 152        8D 0       -0.00070   0.00033   0.00279  -0.00330  -0.00083
 153        8D+1       -0.00150  -0.00108   0.00101  -0.00151  -0.00051
 154        8D-1        0.00108  -0.00163  -0.00151  -0.00294   0.00113
 155        8D+2       -0.00468   0.00391  -0.00554   0.00054  -0.00137
 156        8D-2        0.00261   0.00088  -0.00144   0.00628   0.00134
 157        9D 0        0.00066   0.00086  -0.00376   0.00189  -0.00062
 158        9D+1       -0.00118  -0.00132   0.00125  -0.00297  -0.00392
 159        9D-1        0.00106  -0.00315  -0.00184  -0.00434   0.00158
 160        9D+2       -0.00227   0.00515   0.01622  -0.02164  -0.00199
 161        9D-2        0.00790  -0.00344   0.00490   0.00023  -0.00063
 162 8   H  1S         -0.00768   0.03073  -0.12657   0.12791   0.01902
 163        2S         -0.00330   0.02482  -0.03695   0.05344  -0.00486
 164        3S         -0.00203   0.00268   0.00467  -0.00534  -0.00012
 165        4PX         0.00149  -0.00102   0.01752  -0.01059  -0.00103
 166        4PY         0.00438   0.00052   0.00580   0.00045   0.00145
 167        4PZ        -0.00240  -0.00463   0.00091  -0.00614   0.00047
 168        5PX         0.00150  -0.00420   0.01061  -0.00678   0.00456
 169        5PY         0.00089   0.00665   0.00250   0.00114  -0.00090
 170        5PZ        -0.00307  -0.00298   0.00216  -0.00266  -0.00049
                          16        17        18        19        20
     Eigenvalues --     2.00000   2.00000   2.00000   2.00000   2.00000
   1 1   C  1S          0.16695   0.11132  -0.16729  -0.03566  -0.06507
   2        2S          0.01293   0.04654   0.01385  -0.06357  -0.01740
   3        3S         -0.08166  -0.00260  -0.08519   0.01277  -0.01657
   4        4S         -0.02132  -0.03870  -0.02375   0.03482   0.02070
   5        5PX        -0.02632   0.01275  -0.01279   0.07559   0.04251
   6        5PY        -0.10536   0.01328  -0.12388   0.02738  -0.11021
   7        5PZ        -0.04544   0.07228  -0.05239  -0.05842   0.05908
   8        6PX        -0.01493   0.01149  -0.04502   0.02649  -0.00559
   9        6PY        -0.05617   0.01401  -0.04426   0.05540   0.02162
  10        6PZ        -0.01721   0.02088  -0.05311  -0.04360  -0.00032
  11        7PX        -0.00118  -0.00049  -0.00910   0.01343   0.00586
  12        7PY        -0.00457  -0.00848  -0.01520  -0.00502  -0.00955
  13        7PZ        -0.00551  -0.00181  -0.00086   0.00522  -0.01057
  14        8D 0        0.00869  -0.00139   0.01705   0.00800   0.02215
  15        8D+1        0.00972  -0.01066   0.00669   0.01535  -0.01609
  16        8D-1        0.01439  -0.00324   0.00275  -0.00545   0.00590
  17        8D+2        0.00388   0.01341   0.00652   0.01557   0.01485
  18        8D-2        0.01357  -0.00494  -0.01356   0.00339   0.01405
  19        9D 0       -0.00083  -0.00241   0.00053  -0.01442  -0.01679
  20        9D+1       -0.00399   0.00854  -0.00858  -0.01386   0.01766
  21        9D-1       -0.00111   0.00087   0.00945   0.00297   0.00650
  22        9D+2        0.00117   0.00329  -0.00900  -0.00552  -0.01049
  23        9D-2       -0.00903   0.00305  -0.00260  -0.00337  -0.00604
  24 2   F  1S         -0.11924  -0.32385   0.22331  -0.05500  -0.05047
  25        2S         -0.05889   0.01250  -0.12657   0.07619  -0.08964
  26        3S         -0.07395   0.03828  -0.16757   0.08284  -0.09216
  27        4S         -0.02727   0.02103  -0.05378   0.01661  -0.01270
  28        5PX        -0.09660   0.05996   0.18571  -0.26051   0.17973
  29        5PY         0.13070  -0.04320   0.01700   0.22778  -0.00813
  30        5PZ         0.17939  -0.09234   0.14381  -0.11192   0.00294
  31        6PX        -0.07023   0.04458   0.11117  -0.17025   0.11583
  32        6PY         0.07620  -0.02083  -0.00148   0.14517  -0.00619
  33        6PZ         0.09902  -0.04840   0.07705  -0.06772  -0.00227
  34        7PX        -0.01861   0.01330   0.01364  -0.03474   0.02327
  35        7PY         0.01131   0.00037  -0.00609   0.03221   0.00482
  36        7PZ         0.01091  -0.00481  -0.00055  -0.00796  -0.00262
  37        8D 0        0.00281  -0.00091   0.00129  -0.00282  -0.00015
  38        8D+1        0.00039  -0.00014   0.00309  -0.00280   0.00182
  39        8D-1        0.00307  -0.00120   0.00186   0.00141  -0.00120
  40        8D+2       -0.00084   0.00068   0.00046  -0.00255   0.00187
  41        8D-2        0.00014  -0.00012   0.00143  -0.00032   0.00105
  42        9D 0        0.00226  -0.00018   0.00220  -0.00364  -0.00090
  43        9D+1       -0.00355   0.00222   0.00575  -0.00632   0.00428
  44        9D-1        0.00185   0.00008  -0.00218   0.00418  -0.00278
  45        9D+2       -0.00284   0.00109   0.00448  -0.00598   0.00337
  46        9D-2       -0.00297   0.00179  -0.00148  -0.00118   0.00223
  47 3   F  1S         -0.10150  -0.20428   0.01270  -0.09744  -0.09761
  48        2S         -0.00069   0.04021   0.10069   0.15585   0.19528
  49        3S          0.00581   0.04280   0.12267   0.19874   0.21359
  50        4S          0.00142   0.00643   0.02800   0.05892   0.03687
  51        5PX         0.01076  -0.07069   0.31505   0.11372  -0.17955
  52        5PY         0.03226   0.04476   0.01255  -0.14134   0.21684
  53        5PZ         0.02876  -0.05829   0.13170   0.15780   0.01762
  54        6PX         0.00737  -0.04720   0.20896   0.08239  -0.11880
  55        6PY         0.02505   0.02374   0.01280  -0.08122   0.13670
  56        6PZ         0.01822  -0.03480   0.08127   0.08407   0.01514
  57        7PX         0.00158  -0.01174   0.04308   0.02206  -0.02713
  58        7PY         0.00695   0.00322   0.00714  -0.00453   0.03235
  59        7PZ         0.00756  -0.00674   0.01557  -0.00049   0.00113
  60        8D 0        0.00077   0.00077  -0.00063  -0.00265   0.00064
  61        8D+1       -0.00006  -0.00010  -0.00346  -0.00045   0.00033
  62        8D-1        0.00008  -0.00251   0.00009   0.00298  -0.00367
  63        8D+2        0.00022  -0.00107   0.00130   0.00173  -0.00195
  64        8D-2        0.00006   0.00017   0.00189   0.00019   0.00079
  65        9D 0       -0.00088   0.00147  -0.00426  -0.00194  -0.00129
  66        9D+1       -0.00013   0.00063  -0.00914  -0.00437   0.00329
  67        9D-1       -0.00024  -0.00126   0.00174   0.00290  -0.00431
  68        9D+2       -0.00069  -0.00032   0.00448   0.00431  -0.00371
  69        9D-2       -0.00027  -0.00121   0.00339   0.00213  -0.00164
  70 4   F  1S         -0.03405  -0.13536   0.01940   0.02063  -0.01380
  71        2S          0.19085  -0.01039   0.09238  -0.14437  -0.10771
  72        3S          0.23559  -0.00981   0.12100  -0.16968  -0.10948
  73        4S          0.05660  -0.00109   0.03510  -0.04808  -0.02401
  74        5PX        -0.03752  -0.19353  -0.33092  -0.05478  -0.08233
  75        5PY         0.18327  -0.10851  -0.06218   0.02062   0.13472
  76        5PZ         0.09597   0.06627  -0.05925   0.03675   0.04633
  77        6PX        -0.00947  -0.12562  -0.20157  -0.03830  -0.04503
  78        6PY         0.09334  -0.06897  -0.05795   0.01379   0.06885
  79        6PZ         0.06371   0.04053  -0.03535   0.02797   0.02781
  80        7PX         0.00865  -0.02610  -0.03164  -0.01362  -0.00721
  81        7PY         0.00861  -0.00942  -0.01601   0.01091   0.01699
  82        7PZ         0.01414   0.00493  -0.00640   0.00725   0.00217
  83        8D 0        0.00116  -0.00039   0.00106   0.00156   0.00302
  84        8D+1        0.00050   0.00071  -0.00082  -0.00034   0.00067
  85        8D-1       -0.00045  -0.00188   0.00139   0.00141  -0.00182
  86        8D+2        0.00099  -0.00245  -0.00281   0.00151   0.00236
  87        8D-2        0.00176   0.00141   0.00436   0.00199   0.00404
  88        9D 0       -0.00008  -0.00048  -0.00169   0.00204   0.00068
  89        9D+1        0.00175   0.00041  -0.00121   0.00280  -0.00163
  90        9D-1       -0.00313  -0.00225   0.00112  -0.00196  -0.00140
  91        9D+2       -0.00044  -0.00603  -0.01073   0.00099  -0.00067
  92        9D-2       -0.00150   0.00328   0.00475   0.00114  -0.00005
  93 5   C  1S          0.08381  -0.06064   0.04076  -0.08819   0.03859
  94        2S          0.06652   0.05430   0.06301  -0.03563   0.03184
  95        3S          0.04949   0.09262   0.09088  -0.06447   0.00283
  96        4S          0.01422   0.05922   0.00952  -0.05763  -0.02422
  97        5PX         0.06728  -0.06407   0.04003  -0.05790   0.00885
  98        5PY        -0.01258   0.12636   0.05349  -0.01660  -0.03726
  99        5PZ         0.00694   0.06390  -0.09569  -0.11532   0.14154
 100        6PX        -0.02638  -0.00446  -0.03302  -0.02122  -0.03187
 101        6PY        -0.01730   0.04002  -0.00286   0.00724  -0.02680
 102        6PZ         0.00844   0.01305  -0.02105  -0.02741   0.03806
 103        7PX        -0.00463  -0.01278   0.00172  -0.00399   0.00241
 104        7PY        -0.00639   0.01462   0.01764   0.00680   0.00179
 105        7PZ         0.00064   0.00312  -0.00414  -0.00770   0.00893
 106        8D 0       -0.00998   0.00398  -0.00368   0.00468  -0.00293
 107        8D+1        0.00068   0.00153  -0.00412  -0.00512   0.00609
 108        8D-1       -0.00135  -0.00303  -0.00419  -0.00947   0.00273
 109        8D+2       -0.01155   0.00443  -0.01064   0.00774  -0.00280
 110        8D-2        0.00932   0.00124  -0.00071   0.00673   0.00985
 111        9D 0       -0.00359  -0.00462  -0.00241   0.00991   0.00852
 112        9D+1       -0.00437   0.00395  -0.00870  -0.01048   0.00647
 113        9D-1        0.00041   0.00189  -0.00599  -0.00662   0.00300
 114        9D+2        0.01699  -0.00452   0.01928  -0.00222   0.00443
 115        9D-2       -0.01427  -0.00103  -0.01755   0.01917   0.01443
 116 6   O  1S          0.29134   0.60816  -0.08028   0.26635  -0.13257
 117        2S          0.24136  -0.17551  -0.03945   0.05207   0.11807
 118        3S          0.24697  -0.27830  -0.06460   0.07092   0.15110
 119        4S          0.04425  -0.10186  -0.03033   0.03940   0.04391
 120        5PX         0.04352  -0.16175  -0.15151   0.11952   0.08260
 121        5PY         0.02315  -0.14200  -0.06773   0.02595   0.01959
 122        5PZ        -0.00198   0.03207  -0.10254  -0.14959   0.13566
 123        6PX         0.03538  -0.07802  -0.07817   0.07094   0.05067
 124        6PY         0.03091  -0.05549  -0.01299  -0.00568   0.00561
 125        6PZ        -0.00206   0.01776  -0.06052  -0.08989   0.08131
 126        7PX         0.00479  -0.00375  -0.02148   0.01433   0.00503
 127        7PY        -0.00020   0.00471   0.00418  -0.00808  -0.00513
 128        7PZ        -0.00018  -0.00221  -0.00486  -0.00915   0.00544
 129        8D 0       -0.00062  -0.00409  -0.00317   0.00197   0.00082
 130        8D+1       -0.00011  -0.00106   0.00218   0.00306  -0.00327
 131        8D-1       -0.00011  -0.00223   0.00461   0.00616  -0.00648
 132        8D+2       -0.00298   0.00018  -0.00139   0.00038  -0.00154
 133        8D-2        0.00074   0.00743   0.00603  -0.00296  -0.00155
 134        9D 0        0.00499   0.00153   0.00580  -0.00329   0.00022
 135        9D+1       -0.00015  -0.00115   0.00255   0.00259  -0.00254
 136        9D-1       -0.00007  -0.00236   0.00385   0.00532  -0.00632
 137        9D+2        0.00184   0.00100  -0.00018  -0.00373  -0.00229
 138        9D-2       -0.00557   0.00210  -0.00235   0.00020  -0.00243
 139 7   O  1S          0.29840   0.07404  -0.07763  -0.32059  -0.41459
 140        2S          0.02408  -0.00520   0.03910   0.06323  -0.00863
 141        3S          0.00361  -0.01169   0.03110   0.09949   0.01790
 142        4S         -0.01368   0.01624   0.03351   0.02494  -0.01984
 143        5PX        -0.04823   0.07190   0.02680  -0.00140  -0.05979
 144        5PY         0.06339  -0.08077   0.03123  -0.11147   0.00742
 145        5PZ         0.01482   0.10613  -0.06245  -0.03691   0.13742
 146        6PX        -0.01484   0.02390   0.00435  -0.01638  -0.01917
 147        6PY         0.02611  -0.03999   0.01373  -0.05484   0.00533
 148        6PZ         0.00962   0.07000  -0.04072  -0.02198   0.08764
 149        7PX        -0.00143   0.00626   0.00355   0.00432   0.00210
 150        7PY        -0.00098   0.00183   0.00818  -0.00907  -0.00991
 151        7PZ        -0.00017   0.01179  -0.00575  -0.00278   0.01161
 152        8D 0       -0.00129   0.00098  -0.00106   0.00053  -0.00002
 153        8D+1        0.00005   0.00037   0.00037   0.00052   0.00020
 154        8D-1        0.00040   0.00334  -0.00302  -0.00287   0.00541
 155        8D+2       -0.00393   0.00440  -0.00055   0.00383  -0.00220
 156        8D-2       -0.00163   0.00211   0.00111  -0.00142  -0.00240
 157        9D 0       -0.00018   0.00012   0.00049   0.00047  -0.00259
 158        9D+1       -0.00089   0.00122  -0.00086  -0.00291   0.00216
 159        9D-1        0.00049   0.00524  -0.00474  -0.00479   0.00838
 160        9D+2       -0.00075  -0.00352  -0.00018  -0.00155   0.00125
 161        9D-2        0.00343  -0.00582  -0.00050  -0.00755   0.00054
 162 8   H  1S         -0.02723   0.04818   0.03390   0.02466  -0.04252
 163        2S         -0.01236   0.00076  -0.03095   0.02172   0.01686
 164        3S         -0.00107   0.00175   0.00063   0.00355  -0.00127
 165        4PX         0.00200  -0.00398  -0.00629  -0.00349   0.00458
 166        4PY         0.00260  -0.00470  -0.00046  -0.00363   0.00148
 167        4PZ         0.00074   0.00391  -0.00208  -0.00072   0.00502
 168        5PX         0.00305   0.00113   0.00985  -0.00933  -0.00718
 169        5PY        -0.00238  -0.00284  -0.00584   0.00571   0.00591
 170        5PZ         0.00164   0.00137   0.00107   0.00228   0.00174
                          21        22        23        24        25
     Eigenvalues --     2.00000   2.00000   2.00000   2.00000   2.00000
   1 1   C  1S          0.12548   0.03806   0.12568   0.04531  -0.40946
   2        2S          0.02741  -0.01565  -0.06733   0.03658  -0.03624
   3        3S          0.03546   0.01523  -0.27590   0.04798  -0.00539
   4        4S          0.01836   0.05734  -0.02746   0.04437  -0.02968
   5        5PX         0.04100   0.16827  -0.17812   0.06031  -0.11853
   6        5PY         0.07056   0.08567   0.09161   0.06161  -0.04853
   7        5PZ        -0.06184   0.02602   0.07725  -0.01372  -0.02070
   8        6PX         0.01975  -0.02994  -0.07985  -0.03582   0.00185
   9        6PY         0.03493  -0.00956  -0.02048  -0.01077  -0.01435
  10        6PZ        -0.01216   0.01213  -0.00534  -0.00878   0.01793
  11        7PX         0.00382   0.01613  -0.02075  -0.00171  -0.01108
  12        7PY         0.00175   0.00476   0.00552   0.01738   0.00654
  13        7PZ        -0.01772  -0.00067   0.00345  -0.00041  -0.01101
  14        8D 0       -0.00160  -0.01852   0.00182  -0.01073  -0.01416
  15        8D+1        0.01530   0.00148  -0.00105   0.00519   0.01377
  16        8D-1        0.04135  -0.00060  -0.02010   0.00128   0.02686
  17        8D+2        0.00560  -0.00284  -0.02882  -0.00543  -0.02083
  18        8D-2       -0.00372  -0.02164  -0.01752   0.00212  -0.00556
  19        9D 0       -0.00142   0.01412   0.00793   0.01673   0.00078
  20        9D+1       -0.00347  -0.00017   0.00379  -0.00329  -0.00142
  21        9D-1       -0.00738  -0.00136   0.01061   0.00139  -0.01183
  22        9D+2        0.00247  -0.01668  -0.00463  -0.00622   0.00840
  23        9D-2        0.00586  -0.00661  -0.00596   0.00598   0.00299
  24 2   F  1S         -0.09622  -0.28571  -0.31840   0.00973   0.07129
  25        2S          0.02081  -0.05546   0.05602  -0.16830   0.07415
  26        3S          0.02292  -0.04470   0.10248  -0.19514   0.08029
  27        4S         -0.00321  -0.00822   0.01936  -0.05831   0.01727
  28        5PX        -0.06650   0.08123   0.00682   0.00667  -0.02960
  29        5PY         0.10294  -0.20670  -0.05448   0.02782  -0.13013
  30        5PZ         0.12879  -0.08446  -0.10960   0.05161   0.22895
  31        6PX        -0.04832   0.05665   0.01300  -0.00004  -0.01979
  32        6PY         0.05829  -0.12618  -0.01956   0.01176  -0.08565
  33        6PZ         0.07467  -0.04323  -0.04722   0.02521   0.13915
  34        7PX        -0.01161   0.00250   0.01662  -0.00792   0.00081
[...]
     10  0.170841D-01 -0.266747D-01 -0.283761D-01  0.983853D-02  0.109104D-01
     11 -0.240475D-02  0.222166D-01  0.228939D-01 -0.181610D-01 -0.340071D-02
     12 -0.266747D-01  0.170779D-01 -0.283737D-01  0.983096D-02  0.109104D-01
     13 -0.285483D-01 -0.285462D-01  0.137874D-01  0.270130D-01 -0.101657D-01
     14  0.115905D-01  0.115893D-01 -0.136578D-01  0.654180D-02  0.104614D-01
     15 -0.335483D-02 -0.335376D-02  0.181851D-01  0.229855D-01 -0.445570D-01
     16 -0.823569D-02 -0.823555D-02 -0.452734D-02 -0.295273D-01  0.340956D-01
     17  0.241077D-03  0.240992D-03  0.317829D-02  0.320024D-02  0.317619D-02
     18 -0.111608D-02 -0.174490D-01  0.191132D-01  0.124558D-02 -0.375399D-02
     19  0.290499D-02 -0.214694D-01  0.191133D-01  0.124566D-02 -0.375386D-02
     20  0.174489D-01  0.111808D-02 -0.191111D-01 -0.124495D-02  0.375376D-02
     21  0.214700D-01 -0.290228D-02 -0.191110D-01 -0.124488D-02  0.375389D-02
     22 -0.214666D-01  0.214638D-01 -0.218698D-05 -0.105993D-05  0.000000D+00
     23 -0.174455D-01  0.174434D-01 -0.214312D-05  0.000000D+00  0.000000D+00
     24 -0.276128D-02  0.276088D-02  0.000000D+00  0.000000D+00  0.000000D+00
     25  0.139971D-02 -0.139945D-02  0.000000D+00  0.000000D+00  0.000000D+00
                6             7             8             9            10 
      6  0.418526D+00
      7  0.954945D-02  0.501742D+00
      8 -0.393859D-02  0.398819D-03  0.127753D+00
      9 -0.452841D-02  0.676165D-03  0.288018D-01  0.132035D+00
     10  0.598116D-04 -0.106193D-02 -0.814216D-01 -0.813738D-01  0.168291D+00
     11 -0.452826D-02  0.676158D-03  0.288003D-01  0.298072D-01 -0.157844D-01
     12  0.604362D-04 -0.106206D-02 -0.814145D-01 -0.157817D-01  0.977333D-02
     13  0.123700D-01  0.429915D-03 -0.158611D-01 -0.866593D-01 -0.564417D-02
     14 -0.390518D-01  0.317756D-02 -0.581772D-02 -0.325446D-02  0.778372D-02
     15  0.251970D-01  0.614610D-02 -0.504733D-03 -0.482250D-02 -0.179189D-02
     16  0.138548D-01 -0.932366D-02  0.632245D-02  0.807697D-02 -0.599184D-02
     17  0.392905D-01  0.262308D-01  0.251997D-03 -0.538991D-03 -0.263780D-02
     18  0.241388D-02  0.433338D-03 -0.272954D-01  0.281355D-01 -0.710347D-02
     19  0.241403D-02  0.433397D-03 -0.272957D-01  0.273949D-01 -0.205843D-02
     20 -0.241434D-02 -0.433307D-03  0.272948D-01  0.164417D-02  0.578605D-02
     21 -0.241420D-02 -0.433248D-03  0.272945D-01  0.903592D-03  0.108311D-01
     22  0.000000D+00  0.000000D+00  0.134300D-05 -0.276624D-01 -0.112519D-01
     23  0.000000D+00  0.000000D+00  0.103882D-05 -0.284030D-01 -0.620690D-02
     24  0.168823D-05  0.000000D+00  0.000000D+00  0.356364D-03 -0.375638D-02
     25  0.193779D-05  0.000000D+00  0.000000D+00 -0.409973D-03  0.146423D-02
               11            12            13            14            15 
     11  0.132024D+00
     12 -0.813629D-01  0.168274D+00
     13 -0.866562D-01 -0.564588D-02  0.193200D+00
     14 -0.325433D-02  0.778345D-02 -0.365014D-02  0.143272D+00
     15 -0.482226D-02 -0.179195D-02  0.133299D-01 -0.580173D-01  0.153010D+00
     16  0.807659D-02 -0.599148D-02 -0.967972D-02 -0.852548D-01 -0.949931D-01
     17 -0.538810D-03 -0.263801D-02  0.604500D-02  0.267121D-02  0.265240D-01
     18 -0.164531D-02 -0.578483D-02  0.135005D-01 -0.137368D-02  0.146497D-02
     19 -0.904996D-03 -0.108294D-01  0.135006D-01 -0.137335D-02  0.146432D-02
     20 -0.281329D-01  0.710196D-02 -0.135010D-01  0.137290D-02 -0.146409D-02
     21 -0.273926D-01  0.205739D-02 -0.135010D-01  0.137323D-02 -0.146474D-02
     22  0.276613D-01  0.112509D-01  0.000000D+00  0.000000D+00  0.000000D+00
     23  0.284016D-01  0.620633D-02  0.000000D+00  0.000000D+00  0.000000D+00
     24 -0.356283D-03  0.375586D-02  0.000000D+00  0.000000D+00  0.000000D+00
     25  0.409824D-03 -0.146432D-02  0.000000D+00  0.000000D+00  0.000000D+00
               16            17            18            19            20 
     16  0.180248D+00
     17 -0.291952D-01  0.171432D+00
     18 -0.912631D-04  0.153604D-02  0.319848D-01
     19 -0.910087D-04  0.153653D-02  0.216528D-01  0.350102D-01
     20  0.912263D-04 -0.153658D-02 -0.102839D-01 -0.206158D-01  0.319837D-01
     21  0.914806D-04 -0.153610D-02 -0.206158D-01 -0.725847D-02  0.216518D-01
     22  0.000000D+00  0.000000D+00 -0.733570D-02 -0.200257D-01 -0.733474D-02
     23  0.000000D+00  0.000000D+00 -0.176676D-01 -0.666837D-02 -0.176667D-01
     24  0.000000D+00  0.000000D+00  0.507840D-02 -0.783403D-02  0.507835D-02
     25  0.000000D+00  0.136424D-05 -0.561312D-02  0.598826D-02 -0.561324D-02
               21            22            23            24            25 
     21  0.350091D-01
     22 -0.200248D-01  0.345701D-01
     23 -0.666747D-02  0.218801D-01  0.328793D-01
     24 -0.783407D-02  0.707785D-02 -0.583457D-02  0.165069D-01
     25  0.598814D-02 -0.605387D-02  0.554751D-02  0.314508D-02  0.151503D-01
 Leave Link  716 at Sat Aug  1 15:23:34 2020, MaxMem=   524288000 cpu:               0.2 elap:               0.0
 (Enter /home/ubuntu/g16/l103.exe)

 GradGradGradGradGradGradGradGradGradGradGradGradGradGradGradGradGradGrad
 Berny optimization.
 Red2BG is reusing G-inverse.
 Internal  Forces:  Max     0.000022977 RMS     0.000008511
 Search for a local minimum.
 Step number   1 out of a maximum of    2
 All quantities printed in internal units (Hartrees-Bohrs-Radians)
 Second derivative matrix not updated -- analytic derivatives used.
 ITU=  0
     Eigenvalues ---    0.00072   0.01895   0.04737   0.11096   0.12832
     Eigenvalues ---    0.14969   0.18569   0.20781   0.21555   0.23240
     Eigenvalues ---    0.27740   0.34492   0.36430   0.37315   0.42885
     Eigenvalues ---    0.50631   0.51398   0.90212
 Angle between quadratic step and forces=  40.84 degrees.
 Linear search not attempted -- first point.
 Iteration  1 RMS(Cart)=  0.00003794 RMS(Int)=  0.00000000
 Iteration  2 RMS(Cart)=  0.00000000 RMS(Int)=  0.00000000
 ITry= 1 IFail=0 DXMaxC= 1.02D-04 DCOld= 1.00D+10 DXMaxT= 3.00D-01 DXLimC= 3.00D+00 Rises=F
 Variable       Old X    -DE/DX   Delta X   Delta X   Delta X     New X
                                 (Linear)    (Quad)   (Total)
    R1        2.55147   0.00002   0.00000   0.00007   0.00007   2.55155
    R2        2.55161  -0.00002   0.00000  -0.00007  -0.00007   2.55155
    R3        2.52613  -0.00000   0.00000  -0.00001  -0.00001   2.52612
    R4        2.92928   0.00000   0.00000  -0.00001  -0.00001   2.92928
    R5        2.26891   0.00002   0.00000   0.00003   0.00003   2.26893
    R6        2.53410  -0.00002   0.00000  -0.00005  -0.00005   2.53405
    R7        1.83706   0.00000   0.00000   0.00001   0.00001   1.83706
    A1        1.88843  -0.00000   0.00000  -0.00002  -0.00002   1.88842
    A2        1.89439  -0.00001   0.00000  -0.00002  -0.00002   1.89437
    A3        1.92788   0.00001   0.00000   0.00001   0.00001   1.92789
    A4        1.89438  -0.00001   0.00000  -0.00001  -0.00001   1.89437
    A5        1.92788   0.00000   0.00000   0.00001   0.00001   1.92789
    A6        1.92983   0.00001   0.00000   0.00002   0.00002   1.92985
    A7        2.15816  -0.00001   0.00000  -0.00004  -0.00004   2.15812
    A8        1.91811   0.00001   0.00000   0.00005   0.00005   1.91816
    A9        2.20692  -0.00000   0.00000  -0.00001  -0.00001   2.20691
   A10        1.88251   0.00000   0.00000   0.00002   0.00002   1.88253
    D1        2.09729   0.00000   0.00000  -0.00000  -0.00000   2.09729
    D2       -1.04430   0.00000   0.00000  -0.00001  -0.00001  -1.04430
    D3       -2.09728   0.00000   0.00000  -0.00001  -0.00001  -2.09729
    D4        1.04431   0.00000   0.00000  -0.00001  -0.00001   1.04430
    D5       -0.00000  -0.00000   0.00000   0.00000   0.00000  -0.00000
    D6       -3.14159  -0.00000   0.00000  -0.00000  -0.00000   3.14159
    D7        3.14151   0.00000   0.00000   0.00008   0.00008   3.14159
    D8       -0.00008   0.00000   0.00000   0.00008   0.00008  -0.00000
         Item               Value     Threshold  Converged?
 Maximum Force            0.000023     0.000450     YES
 RMS     Force            0.000009     0.000300     YES
 Maximum Displacement     0.000102     0.001800     YES
 RMS     Displacement     0.000038     0.001200     YES
 Predicted change in Energy=-2.873134D-09
 Optimization completed.
    -- Stationary point found.
                           ----------------------------
                           !   Optimized Parameters   !
                           ! (Angstroms and Degrees)  !
 --------------------------                            --------------------------
 ! Name  Definition              Value          Derivative Info.                !
 --------------------------------------------------------------------------------
 ! R1    R(1,2)                  1.3502         -DE/DX =    0.0                 !
 ! R2    R(1,3)                  1.3503         -DE/DX =    0.0                 !
 ! R3    R(1,4)                  1.3368         -DE/DX =    0.0                 !
 ! R4    R(1,5)                  1.5501         -DE/DX =    0.0                 !
 ! R5    R(5,6)                  1.2007         -DE/DX =    0.0                 !
 ! R6    R(5,7)                  1.341          -DE/DX =    0.0                 !
 ! R7    R(7,8)                  0.9721         -DE/DX =    0.0                 !
 ! A1    A(2,1,3)              108.1992         -DE/DX =    0.0                 !
 ! A2    A(2,1,4)              108.5405         -DE/DX =    0.0                 !
 ! A3    A(2,1,5)              110.4592         -DE/DX =    0.0                 !
 ! A4    A(3,1,4)              108.5397         -DE/DX =    0.0                 !
 ! A5    A(3,1,5)              110.4595         -DE/DX =    0.0                 !
 ! A6    A(4,1,5)              110.571          -DE/DX =    0.0                 !
 ! A7    A(1,5,6)              123.6534         -DE/DX =    0.0                 !
 ! A8    A(1,5,7)              109.8995         -DE/DX =    0.0                 !
 ! A9    A(6,5,7)              126.447          -DE/DX =    0.0                 !
 ! A10   A(5,7,8)              107.8599         -DE/DX =    0.0                 !
 ! D1    D(2,1,5,6)            120.1661         -DE/DX =    0.0                 !
 ! D2    D(2,1,5,7)            -59.8337         -DE/DX =    0.0                 !
 ! D3    D(3,1,5,6)           -120.1656         -DE/DX =    0.0                 !
 ! D4    D(3,1,5,7)             59.8346         -DE/DX =    0.0                 !
 ! D5    D(4,1,5,6)             -0.0001         -DE/DX =    0.0                 !
 ! D6    D(4,1,5,7)            180.0            -DE/DX =    0.0                 !
 ! D7    D(1,5,7,8)            179.9954         -DE/DX =    0.0                 !
 ! D8    D(6,5,7,8)             -0.0044         -DE/DX =    0.0                 !
 --------------------------------------------------------------------------------
 GradGradGradGradGradGradGradGradGradGradGradGradGradGradGradGradGradGrad

 Leave Link  103 at Sat Aug  1 15:23:34 2020, MaxMem=   524288000 cpu:               0.1 elap:               0.0
 (Enter /home/ubuntu/g16/l9999.exe)

 ----------------------------------------------------------------------

 Electric dipole moment (input orientation):
 (Debye = 10**-18 statcoulomb cm , SI units = C m)
                  (au)            (Debye)         (10**-30 SI)
   Tot        0.883994D+00      0.224689D+01      0.749481D+01
   x         -0.467475D+00     -0.118820D+01     -0.396342D+01
   y          0.394122D-01      0.100176D+00      0.334150D+00
   z         -0.749239D+00     -0.190438D+01     -0.635231D+01

 Dipole polarizability, Alpha (input orientation).
 (esu units = cm**3 , SI units = C**2 m**2 J**-1)
 Alpha(0;0):
               (au)            (10**-24 esu)      (10**-40 SI)
   iso        0.363076D+02      0.538023D+01      0.598631D+01
   aniso      0.102699D+02      0.152184D+01      0.169327D+01
   xx         0.385765D+02      0.571645D+01      0.636041D+01
   yx         0.295868D+01      0.438431D+00      0.487820D+00
   yy         0.311138D+02      0.461059D+01      0.512998D+01
   zx         0.375547D+00      0.556503D-01      0.619193D-01
   zy        -0.243375D+01     -0.360645D+00     -0.401272D+00
   zz         0.392324D+02      0.581364D+01      0.646854D+01

 ----------------------------------------------------------------------

 Dipole orientation:
     6         10.29344567         -2.19712597         -7.59525931
     9         12.45061791         -0.84599428         -7.41899918
     9         10.88697128         -4.67253574         -7.41974868
     9          9.26533414         -1.77655585         -9.86405730
     6          8.43216876         -1.43691925         -5.46490004
     8          6.36185024         -0.59080498         -5.84676228
     8          9.48814339         -1.86887329         -3.20216181
     1          8.27764870         -1.37429919         -1.91185801

 Electric dipole moment (dipole orientation):
 (Debye = 10**-18 statcoulomb cm , SI units = C m)
                  (au)            (Debye)         (10**-30 SI)
   Tot        0.883994D+00      0.224689D+01      0.749481D+01
   x          0.000000D+00      0.000000D+00      0.000000D+00
   y          0.000000D+00      0.000000D+00      0.000000D+00
   z          0.883994D+00      0.224689D+01      0.749481D+01

 Dipole polarizability, Alpha (dipole orientation).
 (esu units = cm**3 , SI units = C**2 m**2 J**-1)
 Alpha(0;0):
               (au)            (10**-24 esu)      (10**-40 SI)
   iso        0.363076D+02      0.538023D+01      0.598631D+01
   aniso      0.102699D+02      0.152184D+01      0.169327D+01
   xx         0.385186D+02      0.570786D+01      0.635085D+01
   yx        -0.369396D+01     -0.547388D+00     -0.609051D+00
   yy         0.309903D+02      0.459228D+01      0.510960D+01
   zx         0.300294D+00      0.444990D-01      0.495118D-01
   zy        -0.124392D+00     -0.184331D-01     -0.205095D-01
   zz         0.394139D+02      0.584053D+01      0.649847D+01

 ----------------------------------------------------------------------
 1\1\GINC-LC06-1-2\Freq\UB3LYP\Aug-CC-pVDZ\C2H1F3O2\UBUNTU\01-Aug-2020\
 0\\#P Geom=AllCheck Guess=TCheck SCRF=Check GenChk UB3LYP/Aug-CC-pVDZ 
 Freq\\HOOCCF3_UB3LYP-aug-cc-pVDZ\\0,1\C,6.762871486,1.0517346119,0.577
 8637515\F,7.6731641087,0.3562414862,-0.1367319089\F,6.9970128698,2.368
 4045767,0.3914551856\F,6.9332292475,0.7689475569,1.8732270347\C,5.3257
 161744,0.6875756935,0.1253014177\O,4.4971256944,0.2173230438,0.8559670
 161\O,5.1696437937,0.976425568,-1.1748726447\H,4.2616166255,0.73725746
 31,-1.4265098521\\Version=ES64L-G16RevA.03\State=1-A\HF=-526.8736117\S
 2=0.\S2-1=0.\S2A=0.\RMSD=2.292e-09\RMSF=1.290e-05\ZeroPoint=0.0384954\
 Thermal=0.044767\Dipole=-0.4674753,0.0394122,-0.7492389\DipoleDeriv=1.
 3688639,-0.0886241,-0.081711,-0.1040241,1.6617429,-0.0011804,-0.022997
 8,0.0185511,1.5962686,-0.6829767,0.2252321,0.2290467,0.1859206,-0.4402
 149,-0.175552,0.1734904,-0.1796608,-0.4379925,-0.3914448,-0.1824768,-0
 .0029193,-0.1224644,-0.8910922,0.0778644,-0.0262442,0.0554627,-0.27870
 11,-0.334013,0.0209309,-0.1650688,0.0028859,-0.2926262,0.0999013,-0.09
 63052,0.1230088,-0.8592286,0.9488042,0.2603592,-0.0695775,0.25709,0.41
 78153,-0.3922695,-0.0572013,-0.3880973,1.6337422,-0.7621441,-0.2368541
 ,0.3211008,-0.1688353,-0.4255439,0.2309322,0.06201,0.1438609,-0.776839
 9,-0.3960617,0.0473389,-0.2916874,-0.0060057,-0.348309,0.1418285,-0.08
 84709,0.2101033,-1.2227743,0.2489722,-0.0459062,0.0608165,-0.0445669,0
 .318228,0.0184756,0.055719,0.0167712,0.3455257\Polar=38.576511,2.95867
 62,31.1138297,0.375547,-2.4337528,39.2323578\Quadrupole=0.644835,-0.77
 04558,0.1256208,-0.846053,4.2169633,1.3498297\PG=C01 [X(C2H1F3O2)]\NIm
 ag=0\\0.55403531,0.02367412,0.46895747,0.03192350,-0.00981147,0.536883
 77,-0.19212316,0.06444104,0.05872571,0.20342964,0.06311747,-0.10335260
 ,-0.03635582,-0.10731463,0.14961631,0.06542448,-0.03742851,-0.10741432
 ,-0.11010559,0.08093926,0.15850485,-0.09412093,-0.05870401,-0.00141597
 ,0.01278812,0.03599191,0.00373041,0.07344309,-0.06034706,-0.23699065,0
 .01124343,0.02295764,-0.06171788,-0.01859204,0.05092294,0.35853422,0.0
 0319837,0.01611905,-0.07163524,0.00228639,-0.02447549,0.00860891,-0.00
 871190,-0.04222717,0.07941799,-0.09031503,0.00372862,-0.04107184,0.008
 53100,0.00205574,0.03790363,0.01398077,-0.00158119,0.00675467,0.076885
 77,0.00797999,-0.07619463,0.03639524,0.00136159,0.01160085,-0.02175252
 ,0.00369187,-0.03279115,0.05643372,-0.00912947,0.09010920,-0.05726717,
 0.03095025,-0.26054252,0.02509071,-0.01483725,-0.06385477,0.00212592,0
 .04365965,-0.02490553,0.03676404,-0.06799195,0.38142996,-0.16381010,-0
 .02023051,-0.04377217,-0.01970549,0.00257014,0.00279572,0.00558959,0.0
 0177178,-0.00077382,-0.00063194,-0.00405413,0.00422481,0.75664078,-0.0
 1742378,-0.07102780,-0.01614904,0.02880295,0.00235378,-0.00433952,-0.0
 3447089,-0.03091725,-0.00307648,0.00524686,0.00646838,0.01304625,0.220
 57000,0.34193870,-0.05448499,-0.01974694,-0.06393008,0.03328896,-0.007
 50549,-0.00287509,0.00688224,0.01290839,0.00510599,-0.03120273,0.00114
 037,-0.03615878,-0.15215418,-0.18543366,0.73077235,-0.01505611,-0.0189
 4041,0.02976255,-0.01054619,0.00355743,0.00021106,-0.00881499,-0.01035
 458,-0.00301237,-0.00047957,0.00045881,-0.00152462,-0.44256734,-0.1936
 0746,0.26254711,0.45392204,-0.01325709,0.00955835,0.01539561,-0.007950
 36,0.00093656,0.00011130,0.00107962,0.00014113,-0.00137194,0.00079415,
 0.00025875,-0.00245854,-0.19663953,-0.17885998,0.15711820,0.22861330,0
 .15886415,0.00811641,0.00812087,-0.00249159,-0.00279821,0.00056001,0.0
 0260378,0.00027116,-0.00172846,0.00166846,-0.00280277,-0.00288808,0.00
 675989,0.27410014,0.16100208,-0.33396880,-0.32589174,-0.20509348,0.392
 29620,0.00009359,0.00700401,-0.03287877,-0.00311423,0.00003815,-0.0001
 8865,-0.00299315,-0.00333558,-0.00034291,-0.00831613,-0.00043323,-0.00
 963286,-0.12873381,-0.00868410,-0.05318623,0.02582911,-0.01196565,0.04
 200569,0.54647200,-0.00228930,0.00502107,-0.00326009,-0.00150081,0.000
 79108,0.00064164,0.00072392,0.00313932,-0.00091721,-0.00167047,0.00067
 018,-0.00279348,-0.01516139,-0.07677022,0.03930985,-0.00930230,0.01478
 901,0.04079518,0.13703530,0.10123512,0.00252639,0.00863813,-0.02474280
 ,-0.00667749,0.00186508,0.00347990,-0.00345597,-0.00536755,0.00101027,
 -0.00492229,-0.00120992,-0.00119360,-0.02851377,0.04760464,-0.27920565
 ,0.03185880,0.03738603,-0.07300911,0.12797999,-0.06222441,0.43976383,0
 .00129644,-0.00097287,-0.00127301,0.00074031,-0.00001620,0.00022894,0.
 00012750,-0.00003395,0.00060157,0.00034511,0.00012457,0.00021916,-0.00
 678169,-0.00043358,-0.01169017,-0.00228695,-0.00067444,0.00699932,-0.4
 2923738,-0.10783494,-0.11879566,0.43579666,-0.00145435,0.00402879,0.00
 254213,-0.00079743,-0.00022809,0.00042039,0.00076465,0.00060227,-0.000
 48448,0.00055575,-0.00012157,0.00042507,0.01117365,0.00681439,0.002209
 29,-0.00042478,-0.00568796,-0.00076811,-0.11965890,-0.04887556,-0.0266
 9199,0.10984142,0.04346772,0.00056301,0.00315862,-0.00612721,0.0001895
 2,-0.00019029,0.00094674,0.00057410,0.00010374,0.00072915,-0.00142270,
 -0.00012685,-0.00153466,-0.05590673,-0.01265426,-0.01973994,0.00604921
 ,-0.00108716,0.00614117,-0.07375626,-0.01155147,-0.06610284,0.12370986
 ,0.02234768,0.08568760\\0.00001981,-0.00002241,-0.00001044,-0.00001807
 ,0.00000789,0.00000867,0.00000191,0.00002257,-0.00000533,-0.00000370,-
 0.00000364,0.00000110,-0.00001214,-0.00001712,0.00003064,0.00000966,0.
 00000712,-0.00000993,-0.00000018,0.00000691,-0.00001658,0.00000270,-0.
 00000132,0.00000188\\\@


 We make a living by what we get,
 we make a life by what we give.
                   -- Sir Winston Churchill
 Job cpu time:       0 days  0 hours 20 minutes 17.0 seconds.
 Elapsed time:       0 days  0 hours  2 minutes 54.6 seconds.
 File lengths (MBytes):  RWF=     58 Int=      0 D2E=      0 Chk=      4 Scr=      1
 Normal termination of Gaussian 16 at Sat Aug  1 15:23:34 2020.
