 Entering Gaussian System, Link 0=/home/ubuntu/g16/g16
 Input=HOTf_UB3LYP-aug-cc-pVDZ-Opt.gjf
 Output=HOTf_UB3LYP-aug-cc-pVDZ-Opt.log
 Initial command:
 /home/ubuntu/g16/l1.exe "/home/ubuntu/g16/Gau-4180.inp" -scrdir="/home/ubuntu/g16/"
 Entering Link 1 = /home/ubuntu/g16/l1.exe PID=      4182.
  
 Copyright (c) 1988,1990,1992,1993,1995,1998,2003,2009,2016,
            Gaussian, Inc.  All Rights Reserved.
  
 This is part of the Gaussian(R) 16 program.  It is based on
 the Gaussian(R) 09 system (copyright 2009, Gaussian, Inc.),
 the Gaussian(R) 03 system (copyright 2003, Gaussian, Inc.),
 the Gaussian(R) 98 system (copyright 1998, Gaussian, Inc.),
 the Gaussian(R) 94 system (copyright 1995, Gaussian, Inc.),
 the Gaussian 92(TM) system (copyright 1992, Gaussian, Inc.),
 the Gaussian 90(TM) system (copyright 1990, Gaussian, Inc.),
 the Gaussian 88(TM) system (copyright 1988, Gaussian, Inc.),
 the Gaussian 86(TM) system (copyright 1986, Carnegie Mellon
 University), and the Gaussian 82(TM) system (copyright 1983,
 Carnegie Mellon University). Gaussian is a federally registered
 trademark of Gaussian, Inc.
  
 This software contains proprietary and confidential information,
 including trade secrets, belonging to Gaussian, Inc.
  
 This software is provided under written license and may be
 used, copied, transmitted, or stored only in accord with that
 written license.
  
 The following legend is applicable only to US Government
 contracts under FAR:
  
                    RESTRICTED RIGHTS LEGEND
  
 Use, reproduction and disclosure by the US Government is
 subject to restrictions as set forth in subparagraphs (a)
 and (c) of the Commercial Computer Software - Restricted
 Rights clause in FAR 52.227-19.
  
 Gaussian, Inc.
 340 Quinnipiac St., Bldg. 40, Wallingford CT 06492
  
  
 ---------------------------------------------------------------
 Warning -- This program may not be used in any manner that
 competes with the business of Gaussian, Inc. or will provide
 assistance to any competitor of Gaussian, Inc.  The licensee
 of this program is prohibited from giving any competitor of
 Gaussian, Inc. access to this program.  By using this program,
 the user acknowledges that Gaussian, Inc. is engaged in the
 business of creating and licensing software in the field of
 computational chemistry and represents and warrants to the
 licensee that it is not a competitor of Gaussian, Inc. and that
 it will not use this program in any manner prohibited above.
 ---------------------------------------------------------------
  

 Cite this work as:
 Gaussian 16, Revision A.03,
 M. J. Frisch, G. W. Trucks, H. B. Schlegel, G. E. Scuseria, 
 M. A. Robb, J. R. Cheeseman, G. Scalmani, V. Barone, 
 G. A. Petersson, H. Nakatsuji, X. Li, M. Caricato, A. V. Marenich, 
 J. Bloino, B. G. Janesko, R. Gomperts, B. Mennucci, H. P. Hratchian, 
 J. V. Ortiz, A. F. Izmaylov, J. L. Sonnenberg, D. Williams-Young, 
 F. Ding, F. Lipparini, F. Egidi, J. Goings, B. Peng, A. Petrone, 
 T. Henderson, D. Ranasinghe, V. G. Zakrzewski, J. Gao, N. Rega, 
 G. Zheng, W. Liang, M. Hada, M. Ehara, K. Toyota, R. Fukuda, 
 J. Hasegawa, M. Ishida, T. Nakajima, Y. Honda, O. Kitao, H. Nakai, 
 T. Vreven, K. Throssell, J. A. Montgomery, Jr., J. E. Peralta, 
 F. Ogliaro, M. J. Bearpark, J. J. Heyd, E. N. Brothers, K. N. Kudin, 
 V. N. Staroverov, T. A. Keith, R. Kobayashi, J. Normand, 
 K. Raghavachari, A. P. Rendell, J. C. Burant, S. S. Iyengar, 
 J. Tomasi, M. Cossi, J. M. Millam, M. Klene, C. Adamo, R. Cammi, 
 J. W. Ochterski, R. L. Martin, K. Morokuma, O. Farkas, 
 J. B. Foresman, and D. J. Fox, Gaussian, Inc., Wallingford CT, 2016.
 
 ******************************************
 Gaussian 16:  ES64L-G16RevA.03 25-Dec-2016
                 1-Aug-2020 
 ******************************************
 %chk=HOTf_UB3LYP-aug-cc-pVDZ-Opt.chk
 %mem=500MW
 %nproc=7
 Will use up to    7 processors via shared memory.
 ----------------------------------------------------------------------
 #p opt=(maxcycles=777) freq ub3lyp/aug-cc-pVDZ pop=(Bonding,AllOrbital
 s,mk,no,nboread)
 ----------------------------------------------------------------------
 1/6=777,18=20,19=15,26=3,38=1/1,3;
 2/9=110,12=2,17=6,18=5,40=1/2;
 3/5=16,7=10,11=2,25=1,30=1,71=1,74=-5,116=2/1,2,3;
 4//1;
 5/5=2,38=5/2;
 6/7=2,8=2,9=2,10=2,15=8,20=1,22=-1,27=20,28=1,31=1,40=2,96=-1/1,2,7;
 7//1,2,3,16;
 1/6=777,18=20,19=15,26=3/3(2);
 2/9=110/2;
 99//99;
 2/9=110/2;
 3/5=16,7=10,11=2,25=1,30=1,71=1,74=-5,116=2/1,2,3;
 4/5=5,16=3,69=1/1;
 5/5=2,38=5/2;
 7//1,2,3,16;
 1/6=777,18=20,19=15,26=3/3(-5);
 2/9=110/2;
 6/7=2,8=2,9=2,10=2,15=8,19=2,20=1,22=-1,27=20,28=1,31=1,40=2,96=-1/1,2,7;
 99/9=1/99;
 Leave Link    1 at Sat Aug  1 16:00:48 2020, MaxMem=   524288000 cpu:               0.2 elap:               0.0
 (Enter /home/ubuntu/g16/l101.exe)
 -----------------------
 HOTf_UB3LYP-aug-cc-pVDZ
 -----------------------
 Symbolic Z-matrix:
 Charge =  0 Multiplicity = 1
 S                     5.06782   0.63153   0.06156 
 C                     6.8394    1.06713   0.59793 
 O                     4.15286   1.51097   0.81196 
 O                     4.96702  -0.83028   0.02954 
 F                     7.7158    0.38715  -0.13973 
 F                     7.03636   2.38143   0.43866 
 F                     6.97787   0.74309   1.88465 
 O                     5.14384   1.15059  -1.50384 
 H                     4.76083   2.04489  -1.53482 
 
 ITRead=  0  0  0  0  0  0  0  0  0
 MicOpt= -1 -1 -1 -1 -1 -1 -1 -1 -1
 NAtoms=      9 NQM=        9 NQMF=       0 NMMI=      0 NMMIF=      0
                NMic=       0 NMicF=      0.
                    Isotopes and Nuclear Properties:
 (Nuclear quadrupole moments (NQMom) in fm**2, nuclear magnetic moments (NMagM)
  in nuclear magnetons)

  Atom         1           2           3           4           5           6           7           8           9
 IAtWgt=          32          12          16          16          19          19          19          16           1
 AtmWgt=  31.9720718  12.0000000  15.9949146  15.9949146  18.9984033  18.9984033  18.9984033  15.9949146   1.0078250
 NucSpn=           0           0           0           0           1           1           1           0           1
 AtZEff=  -0.0000000  -0.0000000  -0.0000000  -0.0000000  -0.0000000  -0.0000000  -0.0000000  -0.0000000  -0.0000000
 NQMom=    0.0000000   0.0000000   0.0000000   0.0000000   0.0000000   0.0000000   0.0000000   0.0000000   0.0000000
 NMagM=    0.0000000   0.0000000   0.0000000   0.0000000   2.6288670   2.6288670   2.6288670   0.0000000   2.7928460
 AtZNuc=  16.0000000   6.0000000   8.0000000   8.0000000   9.0000000   9.0000000   9.0000000   8.0000000   1.0000000
 Leave Link  101 at Sat Aug  1 16:00:48 2020, MaxMem=   524288000 cpu:               0.6 elap:               0.1
 (Enter /home/ubuntu/g16/l103.exe)

 GradGradGradGradGradGradGradGradGradGradGradGradGradGradGradGradGradGrad
 Berny optimization.
 Initialization pass.
                           ----------------------------
                           !    Initial Parameters    !
                           ! (Angstroms and Degrees)  !
 --------------------------                            --------------------------
 ! Name  Definition              Value          Derivative Info.                !
 --------------------------------------------------------------------------------
 ! R1    R(1,2)                  1.9016         estimate D2E/DX2                !
 ! R2    R(1,3)                  1.4743         estimate D2E/DX2                !
 ! R3    R(1,4)                  1.4656         estimate D2E/DX2                !
 ! R4    R(1,8)                  1.651          estimate D2E/DX2                !
 ! R5    R(2,5)                  1.3321         estimate D2E/DX2                !
 ! R6    R(2,6)                  1.3385         estimate D2E/DX2                !
 ! R7    R(2,7)                  1.3341         estimate D2E/DX2                !
 ! R8    R(8,9)                  0.9734         estimate D2E/DX2                !
 ! A1    A(2,1,3)              107.3352         estimate D2E/DX2                !
 ! A2    A(2,1,4)              107.3804         estimate D2E/DX2                !
 ! A3    A(2,1,8)               98.7736         estimate D2E/DX2                !
 ! A4    A(3,1,4)              124.29           estimate D2E/DX2                !
 ! A5    A(3,1,8)              108.8828         estimate D2E/DX2                !
 ! A6    A(4,1,8)              107.2193         estimate D2E/DX2                !
 ! A7    A(1,2,5)              109.8645         estimate D2E/DX2                !
 ! A8    A(1,2,6)              109.1756         estimate D2E/DX2                !
 ! A9    A(1,2,7)              108.2467         estimate D2E/DX2                !
 ! A10   A(5,2,6)              109.7866         estimate D2E/DX2                !
 ! A11   A(5,2,7)              109.9872         estimate D2E/DX2                !
 ! A12   A(6,2,7)              109.7547         estimate D2E/DX2                !
 ! A13   A(1,8,9)              107.513          estimate D2E/DX2                !
 ! D1    D(3,1,2,5)           -174.3082         estimate D2E/DX2                !
 ! D2    D(3,1,2,6)            -53.8624         estimate D2E/DX2                !
 ! D3    D(3,1,2,7)             65.5733         estimate D2E/DX2                !
 ! D4    D(4,1,2,5)             49.9562         estimate D2E/DX2                !
 ! D5    D(4,1,2,6)            170.4019         estimate D2E/DX2                !
 ! D6    D(4,1,2,7)            -70.1623         estimate D2E/DX2                !
 ! D7    D(8,1,2,5)            -61.2776         estimate D2E/DX2                !
 ! D8    D(8,1,2,6)             59.1681         estimate D2E/DX2                !
 ! D9    D(8,1,2,7)            178.6039         estimate D2E/DX2                !
 ! D10   D(2,1,8,9)            -97.2662         estimate D2E/DX2                !
 ! D11   D(3,1,8,9)             14.5375         estimate D2E/DX2                !
 ! D12   D(4,1,8,9)            151.3714         estimate D2E/DX2                !
 --------------------------------------------------------------------------------
 Trust Radius=3.00D-01 FncErr=1.00D-07 GrdErr=1.00D-06 EigMax=2.50D+02 EigMin=1.00D-04
 Number of steps in this run=    100 maximum allowed number of steps=    100.
 GradGradGradGradGradGradGradGradGradGradGradGradGradGradGradGradGradGrad

 Leave Link  103 at Sat Aug  1 16:00:48 2020, MaxMem=   524288000 cpu:               0.1 elap:               0.0
 (Enter /home/ubuntu/g16/l202.exe)
                          Input orientation:                          
 ---------------------------------------------------------------------
 Center     Atomic      Atomic             Coordinates (Angstroms)
 Number     Number       Type             X           Y           Z
 ---------------------------------------------------------------------
      1         16           0        5.067820    0.631530    0.061560
      2          6           0        6.839400    1.067130    0.597930
      3          8           0        4.152860    1.510970    0.811960
      4          8           0        4.967020   -0.830280    0.029540
      5          9           0        7.715800    0.387150   -0.139730
      6          9           0        7.036360    2.381430    0.438660
      7          9           0        6.977870    0.743090    1.884650
      8          8           0        5.143840    1.150590   -1.503840
      9          1           0        4.760830    2.044890   -1.534820
 ---------------------------------------------------------------------
                    Distance matrix (angstroms):
                    1          2          3          4          5
     1  S    0.000000
     2  C    1.901561   0.000000
     3  O    1.474336   2.731355   0.000000
     4  O    1.465631   2.725626   2.599325   0.000000
     5  F    2.666840   1.332138   3.855286   3.011076   0.000000
     6  F    2.660734   1.338486   3.035066   3.842477   2.184794
     7  F    2.642800   1.334101   3.117849   3.156017   2.183884
     8  O    1.650963   2.701727   2.544572   2.511248   3.009753
     9  H    2.154126   3.134500   2.482353   3.279686   3.664181
                    6          7          8          9
     6  F    0.000000
     7  F    2.185970   0.000000
     8  O    2.978239   3.874479   0.000000
     9  H    3.030828   4.278168   0.973360   0.000000
 Stoichiometry    CHF3O3S
 Framework group  C1[X(CHF3O3S)]
 Deg. of freedom    21
 Full point group                 C1      NOp   1
 Largest Abelian subgroup         C1      NOp   1
 Largest concise Abelian subgroup C1      NOp   1
                         Standard orientation:                         
 ---------------------------------------------------------------------
 Center     Atomic      Atomic             Coordinates (Angstroms)
 Number     Number       Type             X           Y           Z
 ---------------------------------------------------------------------
      1         16           0       -0.867975   -0.145759    0.082435
      2          6           0        1.025519    0.007693   -0.001661
      3          8           0       -1.277377    0.213135    1.452563
      4          8           0       -1.236165   -1.395588   -0.588712
      5          9           0        1.440261   -0.186245   -1.252648
      6          9           0        1.386421    1.228694    0.411196
      7          9           0        1.555540   -0.915266    0.802732
      8          8           0       -1.266345    1.091402   -0.935610
      9          1           0       -1.466425    1.869747   -0.386450
 ---------------------------------------------------------------------
 Rotational constants (GHZ):           2.5365678           1.5067995           1.4977591
 Leave Link  202 at Sat Aug  1 16:00:48 2020, MaxMem=   524288000 cpu:               0.1 elap:               0.0
 (Enter /home/ubuntu/g16/l301.exe)
 Standard basis: Aug-CC-pVDZ (5D, 7F)
 Ernie: Thresh=  0.10000D-02 Tol=  0.10000D-05 Strict=F.
 Ernie:  24 primitive shells out of 235 were deleted.
 There are   213 symmetry adapted cartesian basis functions of A   symmetry.
 There are   197 symmetry adapted basis functions of A   symmetry.
   197 basis functions,   393 primitive gaussians,   213 cartesian basis functions
    37 alpha electrons       37 beta electrons
       nuclear repulsion energy       557.7240366422 Hartrees.
 IExCor=  402 DFT=T Ex+Corr=B3LYP ExCW=0 ScaHFX=  0.200000
 ScaDFX=  0.800000  0.720000  1.000000  0.810000 ScalE2=  1.000000  1.000000
 IRadAn=      5 IRanWt=     -1 IRanGd=            0 ICorTp=0 IEmpDi=  4
 NAtoms=    9 NActive=    9 NUniq=    9 SFac= 1.00D+00 NAtFMM=   60 NAOKFM=F Big=F
 Integral buffers will be    131072 words long.
 Raffenetti 2 integral format.
 Two-electron integral symmetry is turned on.
 Leave Link  301 at Sat Aug  1 16:00:48 2020, MaxMem=   524288000 cpu:               0.3 elap:               0.0
 (Enter /home/ubuntu/g16/l302.exe)
 NPDir=0 NMtPBC=     1 NCelOv=     1 NCel=       1 NClECP=     1 NCelD=      1
         NCelK=      1 NCelE2=     1 NClLst=     1 CellRange=     0.0.
 One-electron integrals computed using PRISM.
 One-electron integral symmetry used in STVInt
 NBasis=   197 RedAO= T EigKep=  1.50D-04  NBF=   197
 NBsUse=   197 1.00D-06 EigRej= -1.00D+00 NBFU=   197
 Precomputing XC quadrature grid using
 IXCGrd= 4 IRadAn=           5 IRanWt=          -1 IRanGd=           0 AccXCQ= 0.00D+00.
 Generated NRdTot=       0 NPtTot=           0 NUsed=           0 NTot=          32
 NSgBfM=   213   213   213   213   213 MxSgAt=     9 MxSgA2=     9.
 Leave Link  302 at Sat Aug  1 16:00:48 2020, MaxMem=   524288000 cpu:               1.6 elap:               0.3
 (Enter /home/ubuntu/g16/l303.exe)
 DipDrv:  MaxL=1.
 Leave Link  303 at Sat Aug  1 16:00:48 2020, MaxMem=   524288000 cpu:               0.3 elap:               0.1
 (Enter /home/ubuntu/g16/l401.exe)
 ExpMin= 2.97D-02 ExpMax= 1.11D+05 ExpMxC= 1.07D+03 IAcc=3 IRadAn=         5 AccDes= 0.00D+00
 Harris functional with IExCor=  402 and IRadAn=       5 diagonalized for initial guess.
 HarFok:  IExCor=  402 AccDes= 0.00D+00 IRadAn=         5 IDoV= 1 UseB2=F ITyADJ=14
 ICtDFT=  3500011 ScaDFX=  1.000000  1.000000  1.000000  1.000000
 FoFCou: FMM=F IPFlag=           0 FMFlag=      100000 FMFlg1=           0
         NFxFlg=           0 DoJE=T BraDBF=F KetDBF=T FulRan=T
         wScrn=  0.000000 ICntrl=       500 IOpCl=  0 I1Cent=   200000004 NGrid=           0
         NMat0=    1 NMatS0=      1 NMatT0=    0 NMatD0=    1 NMtDS0=    0 NMtDT0=    0
 Petite list used in FoFCou.
 Harris En= -962.149772562957    
 JPrj=0 DoOrth=F DoCkMO=F.
 Initial guess <Sx>= 0.0000 <Sy>= 0.0000 <Sz>= 0.0000 <S**2>= 0.0000 S= 0.0000
 Leave Link  401 at Sat Aug  1 16:00:49 2020, MaxMem=   524288000 cpu:               8.5 elap:               1.2
 (Enter /home/ubuntu/g16/l502.exe)
 Keep R1 and R2 ints in memory in canonical form, NReq=387678336.
 FoFCou: FMM=F IPFlag=           0 FMFlag=           0 FMFlg1=           0
         NFxFlg=           0 DoJE=F BraDBF=F KetDBF=F FulRan=T
         wScrn=  0.000000 ICntrl=       600 IOpCl=  0 I1Cent=           0 NGrid=           0
         NMat0=    1 NMatS0=  19503 NMatT0=    0 NMatD0=    1 NMtDS0=    0 NMtDT0=    0
 Symmetry not used in FoFCou.
 Two-electron integral symmetry not used.
 UHF open shell SCF:
 Using DIIS extrapolation, IDIIS=  1040.
 NGot=   524288000 LenX=   143807254 LenY=   143761444
 Requested convergence on RMS density matrix=1.00D-08 within 128 cycles.
 Requested convergence on MAX density matrix=1.00D-06.
 Requested convergence on             energy=1.00D-06.
 No special actions if energy rises.

 Cycle   1  Pass 1  IDiag  1:
 E= -961.742638473378    
 DIIS: error= 3.26D-02 at cycle   1 NSaved=   1.
 NSaved= 1 IEnMin= 1 EnMin= -961.742638473378     IErMin= 1 ErrMin= 3.26D-02
 ErrMax= 3.26D-02  0.00D+00 EMaxC= 1.00D-01 BMatC= 1.96D+00 BMatP= 1.96D+00
 IDIUse=3 WtCom= 6.74D-01 WtEn= 3.26D-01
 Coeff-Com:  0.100D+01
 Coeff-En:   0.100D+01
 Coeff:      0.100D+01
 Gap=     0.349 Goal=   None    Shift=    0.000
 Gap=     0.349 Goal=   None    Shift=    0.000
 GapD=    0.349 DampG=1.000 DampE=0.500 DampFc=0.5000 IDamp=-1.
 Damping current iteration by 5.00D-01
 RMSDP=1.11D-02 MaxDP=3.54D-01              OVMax= 3.97D-01

 Cycle   2  Pass 1  IDiag  1:
 E= -961.650160903194     Delta-E=        0.092477570184 Rises=F Damp=T
 DIIS: error= 2.39D-02 at cycle   2 NSaved=   2.
 NSaved= 2 IEnMin= 1 EnMin= -961.742638473378     IErMin= 2 ErrMin= 2.39D-02
 ErrMax= 2.39D-02  0.00D+00 EMaxC= 1.00D-01 BMatC= 7.03D-01 BMatP= 1.96D+00
 IDIUse=3 WtCom= 7.61D-01 WtEn= 2.39D-01
 Coeff-Com:  0.366D+00 0.634D+00
 Coeff-En:   0.572D+00 0.428D+00
 Coeff:      0.415D+00 0.585D+00
 Gap=     0.307 Goal=   None    Shift=    0.000
 Gap=     0.307 Goal=   None    Shift=    0.000
 RMSDP=3.61D-03 MaxDP=1.55D-01 DE= 9.25D-02 OVMax= 3.18D-01

 Cycle   3  Pass 1  IDiag  1:
 E= -962.088937558835     Delta-E=       -0.438776655641 Rises=F Damp=F
 DIIS: error= 5.70D-03 at cycle   3 NSaved=   3.
 NSaved= 3 IEnMin= 3 EnMin= -962.088937558835     IErMin= 3 ErrMin= 5.70D-03
 ErrMax= 5.70D-03  0.00D+00 EMaxC= 1.00D-01 BMatC= 9.40D-02 BMatP= 7.03D-01
 IDIUse=3 WtCom= 9.43D-01 WtEn= 5.70D-02
 Coeff-Com:  0.203D+00 0.323D+00 0.473D+00
 Coeff-En:   0.000D+00 0.000D+00 0.100D+01
 Coeff:      0.192D+00 0.305D+00 0.504D+00
 Gap=     0.315 Goal=   None    Shift=    0.000
 Gap=     0.315 Goal=   None    Shift=    0.000
 RMSDP=9.60D-04 MaxDP=3.68D-02 DE=-4.39D-01 OVMax= 4.15D-02

 Cycle   4  Pass 1  IDiag  1:
 E= -962.103114625591     Delta-E=       -0.014177066756 Rises=F Damp=F
 DIIS: error= 3.07D-03 at cycle   4 NSaved=   4.
 NSaved= 4 IEnMin= 4 EnMin= -962.103114625591     IErMin= 4 ErrMin= 3.07D-03
 ErrMax= 3.07D-03  0.00D+00 EMaxC= 1.00D-01 BMatC= 2.28D-02 BMatP= 9.40D-02
 IDIUse=3 WtCom= 9.69D-01 WtEn= 3.07D-02
 Coeff-Com:  0.218D-01 0.566D-01 0.313D+00 0.608D+00
 Coeff-En:   0.000D+00 0.000D+00 0.209D+00 0.791D+00
 Coeff:      0.212D-01 0.549D-01 0.310D+00 0.614D+00
 Gap=     0.315 Goal=   None    Shift=    0.000
 Gap=     0.315 Goal=   None    Shift=    0.000
 RMSDP=3.90D-04 MaxDP=1.47D-02 DE=-1.42D-02 OVMax= 1.76D-02

 Cycle   5  Pass 1  IDiag  1:
 E= -962.107062356609     Delta-E=       -0.003947731018 Rises=F Damp=F
 DIIS: error= 5.96D-04 at cycle   5 NSaved=   5.
 NSaved= 5 IEnMin= 5 EnMin= -962.107062356609     IErMin= 5 ErrMin= 5.96D-04
 ErrMax= 5.96D-04  0.00D+00 EMaxC= 1.00D-01 BMatC= 1.52D-03 BMatP= 2.28D-02
 IDIUse=3 WtCom= 9.94D-01 WtEn= 5.96D-03
 Coeff-Com: -0.354D-02 0.888D-02 0.123D+00 0.322D+00 0.549D+00
 Coeff-En:   0.000D+00 0.000D+00 0.000D+00 0.000D+00 0.100D+01
 Coeff:     -0.352D-02 0.883D-02 0.123D+00 0.320D+00 0.552D+00
 Gap=     0.312 Goal=   None    Shift=    0.000
 Gap=     0.312 Goal=   None    Shift=    0.000
 RMSDP=1.20D-04 MaxDP=3.44D-03 DE=-3.95D-03 OVMax= 5.36D-03

 Cycle   6  Pass 1  IDiag  1:
 E= -962.107357128876     Delta-E=       -0.000294772267 Rises=F Damp=F
 DIIS: error= 2.15D-04 at cycle   6 NSaved=   6.
 NSaved= 6 IEnMin= 6 EnMin= -962.107357128876     IErMin= 6 ErrMin= 2.15D-04
 ErrMax= 2.15D-04  0.00D+00 EMaxC= 1.00D-01 BMatC= 1.54D-04 BMatP= 1.52D-03
 IDIUse=3 WtCom= 9.98D-01 WtEn= 2.15D-03
 Coeff-Com: -0.322D-02 0.122D-02 0.472D-01 0.131D+00 0.304D+00 0.520D+00
 Coeff-En:   0.000D+00 0.000D+00 0.000D+00 0.000D+00 0.000D+00 0.100D+01
 Coeff:     -0.322D-02 0.122D-02 0.471D-01 0.131D+00 0.303D+00 0.521D+00
 Gap=     0.312 Goal=   None    Shift=    0.000
 Gap=     0.312 Goal=   None    Shift=    0.000
 RMSDP=3.73D-05 MaxDP=1.39D-03 DE=-2.95D-04 OVMax= 2.15D-03

 Cycle   7  Pass 1  IDiag  1:
 E= -962.107378205602     Delta-E=       -0.000021076727 Rises=F Damp=F
 DIIS: error= 1.36D-04 at cycle   7 NSaved=   7.
 NSaved= 7 IEnMin= 7 EnMin= -962.107378205602     IErMin= 7 ErrMin= 1.36D-04
 ErrMax= 1.36D-04  0.00D+00 EMaxC= 1.00D-01 BMatC= 4.88D-05 BMatP= 1.54D-04
 IDIUse=3 WtCom= 9.99D-01 WtEn= 1.36D-03
 Coeff-Com: -0.182D-02-0.567D-03 0.163D-01 0.463D-01 0.136D+00 0.376D+00
 Coeff-Com:  0.428D+00
 Coeff-En:   0.000D+00 0.000D+00 0.000D+00 0.000D+00 0.000D+00 0.259D+00
 Coeff-En:   0.741D+00
 Coeff:     -0.181D-02-0.567D-03 0.163D-01 0.462D-01 0.136D+00 0.376D+00
 Coeff:      0.429D+00
 Gap=     0.312 Goal=   None    Shift=    0.000
 Gap=     0.312 Goal=   None    Shift=    0.000
 RMSDP=1.64D-05 MaxDP=5.69D-04 DE=-2.11D-05 OVMax= 8.76D-04

 Cycle   8  Pass 1  IDiag  1:
 E= -962.107387439877     Delta-E=       -0.000009234275 Rises=F Damp=F
 DIIS: error= 1.70D-05 at cycle   8 NSaved=   8.
 NSaved= 8 IEnMin= 8 EnMin= -962.107387439877     IErMin= 8 ErrMin= 1.70D-05
 ErrMax= 1.70D-05  0.00D+00 EMaxC= 1.00D-01 BMatC= 1.27D-06 BMatP= 4.88D-05
 IDIUse=1 WtCom= 1.00D+00 WtEn= 0.00D+00
 Coeff-Com: -0.408D-03-0.432D-03 0.140D-02 0.347D-02 0.224D-01 0.107D+00
 Coeff-Com:  0.195D+00 0.672D+00
 Coeff:     -0.408D-03-0.432D-03 0.140D-02 0.347D-02 0.224D-01 0.107D+00
 Coeff:      0.195D+00 0.672D+00
 Gap=     0.312 Goal=   None    Shift=    0.000
 Gap=     0.312 Goal=   None    Shift=    0.000
 RMSDP=2.94D-06 MaxDP=9.64D-05 DE=-9.23D-06 OVMax= 1.44D-04

 Cycle   9  Pass 1  IDiag  1:
 E= -962.107387703948     Delta-E=       -0.000000264071 Rises=F Damp=F
 DIIS: error= 3.74D-06 at cycle   9 NSaved=   9.
 NSaved= 9 IEnMin= 9 EnMin= -962.107387703948     IErMin= 9 ErrMin= 3.74D-06
 ErrMax= 3.74D-06  0.00D+00 EMaxC= 1.00D-01 BMatC= 5.55D-08 BMatP= 1.27D-06
 IDIUse=1 WtCom= 1.00D+00 WtEn= 0.00D+00
 Coeff-Com: -0.807D-04-0.834D-04-0.124D-03-0.427D-03 0.253D-02 0.217D-01
 Coeff-Com:  0.514D-01 0.250D+00 0.675D+00
 Coeff:     -0.807D-04-0.834D-04-0.124D-03-0.427D-03 0.253D-02 0.217D-01
 Coeff:      0.514D-01 0.250D+00 0.675D+00
 Gap=     0.312 Goal=   None    Shift=    0.000
 Gap=     0.312 Goal=   None    Shift=    0.000
 RMSDP=5.95D-07 MaxDP=1.87D-05 DE=-2.64D-07 OVMax= 2.03D-05

 Cycle  10  Pass 1  IDiag  1:
 E= -962.107387712347     Delta-E=       -0.000000008399 Rises=F Damp=F
 DIIS: error= 2.24D-06 at cycle  10 NSaved=  10.
 NSaved=10 IEnMin=10 EnMin= -962.107387712347     IErMin=10 ErrMin= 2.24D-06
 ErrMax= 2.24D-06  0.00D+00 EMaxC= 1.00D-01 BMatC= 1.24D-08 BMatP= 5.55D-08
 IDIUse=1 WtCom= 1.00D+00 WtEn= 0.00D+00
 Coeff-Com: -0.175D-04-0.656D-05-0.219D-03-0.567D-03-0.624D-03 0.305D-02
 Coeff-Com:  0.123D-01 0.829D-01 0.367D+00 0.536D+00
 Coeff:     -0.175D-04-0.656D-05-0.219D-03-0.567D-03-0.624D-03 0.305D-02
 Coeff:      0.123D-01 0.829D-01 0.367D+00 0.536D+00
 Gap=     0.312 Goal=   None    Shift=    0.000
 Gap=     0.312 Goal=   None    Shift=    0.000
 RMSDP=2.13D-07 MaxDP=9.54D-06 DE=-8.40D-09 OVMax= 9.05D-06

 Cycle  11  Pass 1  IDiag  1:
 E= -962.107387714325     Delta-E=       -0.000000001978 Rises=F Damp=F
 DIIS: error= 6.16D-07 at cycle  11 NSaved=  11.
 NSaved=11 IEnMin=11 EnMin= -962.107387714325     IErMin=11 ErrMin= 6.16D-07
 ErrMax= 6.16D-07  0.00D+00 EMaxC= 1.00D-01 BMatC= 8.59D-10 BMatP= 1.24D-08
 IDIUse=1 WtCom= 1.00D+00 WtEn= 0.00D+00
 Coeff-Com: -0.331D-05 0.600D-05-0.115D-03-0.256D-03-0.670D-03-0.101D-02
 Coeff-Com:  0.677D-04 0.113D-01 0.903D-01 0.251D+00 0.649D+00
 Coeff:     -0.331D-05 0.600D-05-0.115D-03-0.256D-03-0.670D-03-0.101D-02
 Coeff:      0.677D-04 0.113D-01 0.903D-01 0.251D+00 0.649D+00
 Gap=     0.312 Goal=   None    Shift=    0.000
 Gap=     0.312 Goal=   None    Shift=    0.000
 RMSDP=6.96D-08 MaxDP=2.20D-06 DE=-1.98D-09 OVMax= 2.03D-06

 Cycle  12  Pass 1  IDiag  1:
 E= -962.107387714479     Delta-E=       -0.000000000153 Rises=F Damp=F
 DIIS: error= 1.08D-07 at cycle  12 NSaved=  12.
 NSaved=12 IEnMin=12 EnMin= -962.107387714479     IErMin=12 ErrMin= 1.08D-07
 ErrMax= 1.08D-07  0.00D+00 EMaxC= 1.00D-01 BMatC= 3.84D-11 BMatP= 8.59D-10
 IDIUse=1 WtCom= 1.00D+00 WtEn= 0.00D+00
 Coeff-Com: -0.539D-06 0.389D-05-0.227D-04-0.375D-04-0.171D-03-0.533D-03
 Coeff-Com: -0.886D-03-0.262D-02-0.118D-02 0.481D-01 0.233D+00 0.725D+00
 Coeff:     -0.539D-06 0.389D-05-0.227D-04-0.375D-04-0.171D-03-0.533D-03
 Coeff:     -0.886D-03-0.262D-02-0.118D-02 0.481D-01 0.233D+00 0.725D+00
 Gap=     0.312 Goal=   None    Shift=    0.000
 Gap=     0.312 Goal=   None    Shift=    0.000
 RMSDP=1.82D-08 MaxDP=3.76D-07 DE=-1.53D-10 OVMax= 6.71D-07

 Cycle  13  Pass 1  IDiag  1:
 E= -962.107387714476     Delta-E=        0.000000000003 Rises=F Damp=F
 DIIS: error= 3.83D-08 at cycle  13 NSaved=  13.
 NSaved=13 IEnMin=12 EnMin= -962.107387714479     IErMin=13 ErrMin= 3.83D-08
 ErrMax= 3.83D-08  0.00D+00 EMaxC= 1.00D-01 BMatC= 3.87D-12 BMatP= 3.84D-11
 IDIUse=1 WtCom= 1.00D+00 WtEn= 0.00D+00
 Coeff-Com: -0.134D-06 0.192D-05-0.992D-05-0.168D-04-0.752D-04-0.247D-03
 Coeff-Com: -0.434D-03-0.144D-02-0.258D-02 0.178D-01 0.984D-01 0.360D+00
 Coeff-Com:  0.528D+00
 Coeff:     -0.134D-06 0.192D-05-0.992D-05-0.168D-04-0.752D-04-0.247D-03
 Coeff:     -0.434D-03-0.144D-02-0.258D-02 0.178D-01 0.984D-01 0.360D+00
 Coeff:      0.528D+00
 Gap=     0.312 Goal=   None    Shift=    0.000
 Gap=     0.312 Goal=   None    Shift=    0.000
 RMSDP=3.84D-09 MaxDP=1.60D-07 DE= 2.50D-12 OVMax= 1.86D-07

 SCF Done:  E(UB3LYP) =  -962.107387714     A.U. after   13 cycles
            NFock= 13  Conv=0.38D-08     -V/T= 2.0046
 <Sx>= 0.0000 <Sy>= 0.0000 <Sz>= 0.0000 <S**2>=-0.0000 S=-0.0000
 <L.S>= 0.000000000000E+00
 KE= 9.577294489622D+02 PE=-3.394709266760D+03 EE= 9.171483934411D+02
 Annihilation of the first spin contaminant:
 S**2 before annihilation    -0.0000,   after    -0.0000
 Leave Link  502 at Sat Aug  1 16:01:30 2020, MaxMem=   524288000 cpu:             257.5 elap:              41.0
 (Enter /home/ubuntu/g16/l601.exe)
 Copying SCF densities to generalized density rwf, IOpCl= 1 IROHF=0.

 **********************************************************************

            Population analysis using the SCF density.

 **********************************************************************

 Orbital symmetries:
 Alpha Orbitals:
       Occupied  (A) (A) (A) (A) (A) (A) (A) (A) (A) (A) (A) (A)
                 (A) (A) (A) (A) (A) (A) (A) (A) (A) (A) (A) (A)
                 (A) (A) (A) (A) (A) (A) (A) (A) (A) (A) (A) (A)
                 (A)
       Virtual   (A) (A) (A) (A) (A) (A) (A) (A) (A) (A) (A) (A)
                 (A) (A) (A) (A) (A) (A) (A) (A) (A) (A) (A) (A)
                 (A) (A) (A) (A) (A) (A) (A) (A) (A) (A) (A) (A)
                 (A) (A) (A) (A) (A) (A) (A) (A) (A) (A) (A) (A)
                 (A) (A) (A) (A) (A) (A) (A) (A) (A) (A) (A) (A)
                 (A) (A) (A) (A) (A) (A) (A) (A) (A) (A) (A) (A)
                 (A) (A) (A) (A) (A) (A) (A) (A) (A) (A) (A) (A)
                 (A) (A) (A) (A) (A) (A) (A) (A) (A) (A) (A) (A)
                 (A) (A) (A) (A) (A) (A) (A) (A) (A) (A) (A) (A)
                 (A) (A) (A) (A) (A) (A) (A) (A) (A) (A) (A) (A)
                 (A) (A) (A) (A) (A) (A) (A) (A) (A) (A) (A) (A)
                 (A) (A) (A) (A) (A) (A) (A) (A) (A) (A) (A) (A)
                 (A) (A) (A) (A) (A) (A) (A) (A) (A) (A) (A) (A)
                 (A) (A) (A) (A)
 Beta  Orbitals:
       Occupied  (A) (A) (A) (A) (A) (A) (A) (A) (A) (A) (A) (A)
                 (A) (A) (A) (A) (A) (A) (A) (A) (A) (A) (A) (A)
                 (A) (A) (A) (A) (A) (A) (A) (A) (A) (A) (A) (A)
                 (A)
       Virtual   (A) (A) (A) (A) (A) (A) (A) (A) (A) (A) (A) (A)
                 (A) (A) (A) (A) (A) (A) (A) (A) (A) (A) (A) (A)
                 (A) (A) (A) (A) (A) (A) (A) (A) (A) (A) (A) (A)
                 (A) (A) (A) (A) (A) (A) (A) (A) (A) (A) (A) (A)
                 (A) (A) (A) (A) (A) (A) (A) (A) (A) (A) (A) (A)
                 (A) (A) (A) (A) (A) (A) (A) (A) (A) (A) (A) (A)
                 (A) (A) (A) (A) (A) (A) (A) (A) (A) (A) (A) (A)
                 (A) (A) (A) (A) (A) (A) (A) (A) (A) (A) (A) (A)
                 (A) (A) (A) (A) (A) (A) (A) (A) (A) (A) (A) (A)
                 (A) (A) (A) (A) (A) (A) (A) (A) (A) (A) (A) (A)
                 (A) (A) (A) (A) (A) (A) (A) (A) (A) (A) (A) (A)
                 (A) (A) (A) (A) (A) (A) (A) (A) (A) (A) (A) (A)
                 (A) (A) (A) (A) (A) (A) (A) (A) (A) (A) (A) (A)
                 (A) (A) (A) (A)
 The electronic state is 1-A.
     Natural Orbital Coefficients:
                           1         2         3         4         5
     Eigenvalues --     2.00000   2.00000   2.00000   2.00000   2.00000
   1 1   S  1S          0.18560  -0.07265   0.11302  -0.07359  -0.21698
   2        2S         -0.44479   0.03180  -0.16430   0.06571   0.39705
   3        3S          0.22671  -0.09440   0.04350  -0.03220   0.04766
   4        4S          0.31503  -0.07434  -0.00453   0.00826  -0.03291
   5        5S          0.03957   0.01618  -0.00774  -0.00215  -0.09509
   6        6PX         0.08125  -0.05759   0.15180  -0.10483  -0.16527
   7        6PY        -0.09675  -0.13713  -0.00010   0.01139   0.12209
   8        6PZ         0.08045   0.15328  -0.10685   0.14908   0.06366
   9        7PX         0.04345  -0.14523   0.04213  -0.07742   0.14020
  10        7PY         0.04967   0.03544  -0.01181  -0.01681   0.03776
  11        7PZ        -0.03032   0.03836   0.01456   0.04412  -0.11201
  12        8PX         0.09668  -0.04871   0.00789  -0.00510   0.05685
  13        8PY         0.03201  -0.00232  -0.00763  -0.00549   0.00805
  14        8PZ        -0.00659   0.02168  -0.00706  -0.02723  -0.01734
  15        9PX         0.00230  -0.00045   0.00751  -0.00166  -0.00454
  16        9PY         0.00266   0.00803  -0.00129  -0.00532   0.00463
  17        9PZ         0.00428  -0.00453  -0.00241  -0.00315  -0.00448
  18       10D 0       -0.00674  -0.00393  -0.00375  -0.00893  -0.01144
  19       10D+1        0.02100   0.02104  -0.01475  -0.00591   0.00662
  20       10D-1       -0.00001  -0.01198   0.00159   0.01551  -0.03970
  21       10D+2        0.00972   0.00074   0.01662  -0.02268  -0.00406
  22       10D-2        0.00594  -0.01337  -0.00218   0.00013   0.00257
  23       11D 0       -0.01210  -0.00085  -0.00197  -0.00159   0.00196
  24       11D+1        0.00092   0.00488  -0.00625  -0.00933   0.00089
  25       11D-1       -0.00032   0.01217  -0.00333  -0.00662  -0.00543
  26       11D+2        0.02581  -0.00194  -0.00073   0.00171   0.01133
  27       11D-2        0.00962  -0.00069  -0.00392  -0.00836   0.00631
  28 2   C  1S          0.23590   0.55696   0.45667   0.30844   0.17641
  29        2S         -0.10416   0.01279   0.13761  -0.11693   0.03339
  30        3S         -0.11260   0.00232   0.02273  -0.03907  -0.01929
  31        4S          0.00752  -0.00526  -0.00242   0.00665   0.01174
  32        5PX        -0.18507   0.05977   0.03019  -0.01099  -0.04894
  33        5PY        -0.01389   0.00944  -0.03971  -0.00938  -0.06797
  34        5PZ         0.03898   0.00472   0.02241  -0.00695   0.05844
  35        6PX         0.05242   0.02684  -0.03838   0.04775  -0.03976
  36        6PY         0.00260   0.00831   0.00832   0.00836  -0.00340
  37        6PZ        -0.00161   0.01301   0.01318  -0.00388   0.00271
  38        7PX        -0.01015   0.00909  -0.00727   0.00421  -0.01066
  39        7PY         0.00186   0.00351  -0.00437   0.00064  -0.01149
  40        7PZ        -0.00195  -0.00211   0.00402  -0.00033   0.00820
  41        8D 0       -0.00518   0.00341  -0.00372   0.00617  -0.00043
  42        8D+1       -0.00186  -0.02237   0.01243   0.02952   0.00416
  43        8D-1        0.00529   0.01262  -0.01351   0.00135  -0.02437
  44        8D+2        0.00480  -0.01690   0.00528  -0.00246   0.01196
  45        8D-2       -0.00152  -0.00242  -0.00110   0.00645  -0.00055
  46        9D 0        0.01850  -0.00210  -0.01160   0.01416  -0.00616
  47        9D+1        0.00252   0.00673  -0.00753  -0.01285   0.00231
  48        9D-1        0.00193  -0.00264   0.00617   0.00400   0.00378
  49        9D+2       -0.02463  -0.00832   0.01275  -0.01609   0.00890
  50        9D-2       -0.00181  -0.00461   0.00692  -0.00513   0.00650
  51 3   O  1S          0.09184   0.13244  -0.14160  -0.00594   0.19988
  52        2S         -0.16018   0.02797   0.02880   0.07022   0.02365
  53        3S         -0.21644   0.02099   0.04179   0.08165   0.04901
  54        4S         -0.04639   0.00474   0.00244   0.01383   0.06221
  55        5PX         0.08424  -0.01290  -0.03954   0.02294  -0.01542
  56        5PY         0.00339  -0.00523  -0.03354   0.06505  -0.00768
  57        5PZ        -0.08035  -0.00248  -0.01012  -0.00865   0.12962
  58        6PX         0.04352  -0.00403  -0.02720   0.02112  -0.00656
  59        6PY         0.00703  -0.00585  -0.02317   0.04632  -0.00912
  60        6PZ        -0.02704  -0.00333  -0.00775  -0.00322   0.05769
  61        7PX         0.00542   0.00552  -0.01046   0.00892  -0.00060
  62        7PY         0.00060  -0.00379  -0.00396   0.01118  -0.00726
  63        7PZ        -0.00015   0.00068   0.00195   0.00098  -0.00341
  64        8D 0        0.00320   0.00148   0.00090   0.00196  -0.00483
  65        8D+1       -0.00378   0.00168   0.00004  -0.00067   0.00045
  66        8D-1        0.00013   0.00017   0.00155  -0.00084  -0.00147
  67        8D+2        0.00110  -0.00078  -0.00011   0.00027   0.00028
  68        8D-2       -0.00050   0.00027  -0.00021   0.00026  -0.00004
  69        9D 0       -0.00061   0.00043   0.00207  -0.00096   0.00142
  70        9D+1       -0.00205   0.00148   0.00134  -0.00141  -0.00333
  71        9D-1       -0.00182   0.00025   0.00237  -0.00392   0.00052
  72        9D+2        0.00117   0.00134  -0.00296  -0.00041   0.00085
  73        9D-2        0.00077   0.00033  -0.00156   0.00101  -0.00089
  74 4   O  1S          0.03211   0.15951  -0.14743   0.18533   0.30503
  75        2S         -0.09539   0.03997  -0.02111   0.03620   0.08193
  76        3S         -0.13850   0.04784  -0.01288   0.02131   0.09394
  77        4S         -0.03398   0.01261  -0.00185   0.00158   0.04964
  78        5PX        -0.01726  -0.06851   0.00196  -0.02306   0.02551
  79        5PY         0.10333  -0.05112   0.01245  -0.02831  -0.06655
  80        5PZ         0.00872   0.00340  -0.01592   0.10350  -0.00984
  81        6PX        -0.02095  -0.03922  -0.00251  -0.01965   0.02014
  82        6PY         0.04331  -0.02277   0.01404  -0.02848  -0.03494
  83        6PZ        -0.00549   0.00910  -0.01000   0.06851  -0.00072
  84        7PX        -0.00651   0.00109  -0.00702  -0.00184   0.00132
  85        7PY         0.00211  -0.00391   0.00196  -0.00132  -0.00206
  86        7PZ        -0.00218   0.00351  -0.00332   0.01636   0.00775
  87        8D 0       -0.00218   0.00152  -0.00051   0.00284  -0.00058
  88        8D+1        0.00013  -0.00171   0.00026   0.00031   0.00103
  89        8D-1        0.00236  -0.00059   0.00039   0.00243  -0.00120
  90        8D+2       -0.00394   0.00021  -0.00012   0.00039   0.00118
  91        8D-2        0.00118  -0.00418   0.00090  -0.00181   0.00231
  92        9D 0       -0.00078   0.00158  -0.00131   0.00474  -0.00128
  93        9D+1       -0.00112   0.00011  -0.00083  -0.00187   0.00274
  94        9D-1       -0.00125   0.00256   0.00114   0.00410  -0.00150
  95        9D+2       -0.00101  -0.00180  -0.00352   0.00516   0.00087
  96        9D-2       -0.00138  -0.00478   0.00053  -0.00448   0.00539
  97 5   F  1S         -0.03041  -0.04560  -0.06356   0.07084  -0.11192
  98        2S          0.07915   0.00907   0.07509  -0.10216   0.12380
  99        3S          0.10409   0.00843   0.08750  -0.11372   0.15005
 100        4S         -0.00339   0.00493   0.02325  -0.03379   0.02946
 101        5PX        -0.00079   0.18343  -0.04741  -0.42464   0.11204
 102        5PY        -0.08108  -0.07051   0.04932  -0.06169   0.10424
 103        5PZ        -0.15995   0.13614  -0.03716  -0.20540  -0.08419
 104        6PX        -0.00538   0.12012  -0.03242  -0.27500   0.07000
 105        6PY        -0.04812  -0.04563   0.03136  -0.03950   0.06758
 106        6PZ        -0.08314   0.07858  -0.02056  -0.13048  -0.03889
 107        7PX         0.00942   0.01751  -0.00778  -0.04644   0.01397
 108        7PY        -0.00628  -0.00629   0.00732  -0.00542   0.01585
 109        7PZ        -0.00884   0.01671  -0.00505  -0.02504  -0.00450
 110        8D 0       -0.00561   0.00303   0.00174  -0.00638  -0.00087
 111        8D+1        0.00063   0.00198  -0.00129  -0.00335   0.00125
 112        8D-1       -0.00260  -0.00078   0.00101  -0.00189   0.00097
 113        8D+2        0.00080  -0.00099   0.00030   0.00182  -0.00031
 114        8D-2        0.00045   0.00078  -0.00032  -0.00037  -0.00017
 115        9D 0       -0.00227   0.00466  -0.00017  -0.01165   0.00184
 116        9D+1       -0.00311   0.00715  -0.00248  -0.01031   0.00165
 117        9D-1       -0.00239  -0.00160   0.00057  -0.00383   0.00215
 118        9D+2        0.00116  -0.00327   0.00051   0.00505  -0.00101
 119        9D-2       -0.00006   0.00241  -0.00071  -0.00124   0.00001
 120 6   F  1S         -0.02702  -0.02119   0.47708  -0.16647  -0.09777
 121        2S          0.07494  -0.07568   0.01590  -0.03587   0.05000
 122        3S          0.09639  -0.09262  -0.00490  -0.03477   0.06939
 123        4S          0.00012  -0.02976  -0.00284  -0.00556   0.01901
 124        5PX        -0.08399  -0.16641   0.13878   0.18370   0.13297
 125        5PY         0.12328  -0.06515  -0.03844  -0.00984   0.08428
 126        5PZ         0.11062   0.06268  -0.07987  -0.00942  -0.00102
 127        6PX        -0.05910  -0.10173   0.09169   0.11610   0.08089
 128        6PY         0.06573  -0.02999  -0.02149  -0.00684   0.03956
 129        6PZ         0.06538   0.04560  -0.05106  -0.00896  -0.00506
 130        7PX         0.00014  -0.01590   0.01524   0.02005   0.01360
 131        7PY         0.00733  -0.00077   0.00224  -0.00718   0.00824
 132        7PZ         0.00674   0.01034  -0.00792  -0.00469  -0.00513
 133        8D 0        0.00052  -0.00078  -0.00050   0.00114   0.00066
 134        8D+1        0.00003   0.00014  -0.00018  -0.00082  -0.00061
 135        8D-1       -0.00364  -0.00037   0.00175  -0.00175  -0.00074
 136        8D+2        0.00427   0.00002  -0.00234   0.00056   0.00046
 137        8D-2        0.00124   0.00207  -0.00129  -0.00326  -0.00180
 138        9D 0       -0.00184  -0.00164   0.00163   0.00185   0.00009
 139        9D+1        0.00033  -0.00278   0.00026   0.00016  -0.00096
 140        9D-1       -0.00380  -0.00369   0.00281   0.00134  -0.00031
 141        9D+2        0.00437   0.00145  -0.00386   0.00011  -0.00200
 142        9D-2        0.00596   0.00247  -0.00413  -0.00645  -0.00104
 143 7   F  1S         -0.01984   0.00311  -0.21182  -0.04904   0.14023
 144        2S          0.07670  -0.08943   0.08266   0.00532   0.12526
 145        3S          0.09789  -0.10469   0.09027   0.00825   0.12492
 146        4S          0.00442  -0.01571   0.01436   0.00065   0.02433
 147        5PX        -0.04720  -0.19080   0.07883   0.12445  -0.08098
 148        5PY        -0.13987  -0.11250   0.11740   0.01084   0.07074
 149        5PZ         0.10115  -0.00158  -0.11589  -0.00562   0.02276
 150        6PX        -0.03816  -0.12382   0.05792   0.07895  -0.04652
 151        6PY        -0.07877  -0.07386   0.06603   0.00529   0.03927
 152        6PZ         0.05471   0.00325  -0.06799  -0.00633   0.01805
 153        7PX         0.00338  -0.02460   0.01219   0.01301  -0.00735
 154        7PY        -0.00920  -0.01450   0.01100   0.00485   0.01012
 155        7PZ         0.00340   0.00459  -0.00960  -0.00728  -0.00129
 156        8D 0       -0.00106   0.00078   0.00056  -0.00031  -0.00135
 157        8D+1       -0.00020   0.00114   0.00145  -0.00164   0.00179
 158        8D-1        0.00430   0.00105  -0.00469   0.00168  -0.00192
 159        8D+2        0.00315   0.00178  -0.00241  -0.00062  -0.00028
 160        8D-2        0.00025  -0.00076  -0.00138   0.00196  -0.00269
 161        9D 0       -0.00217  -0.00139   0.00287   0.00253  -0.00219
 162        9D+1        0.00238   0.00130  -0.00069  -0.00039   0.00098
 163        9D-1        0.00417   0.00398  -0.00340   0.00036   0.00125
 164        9D+2        0.00554   0.00597  -0.00342  -0.00061   0.00130
 165        9D-2       -0.00379  -0.00325   0.00252   0.00606  -0.00193
 166 8   O  1S         -0.00122   0.13253   0.24140   0.07598   0.02670
 167        2S         -0.13097   0.02120   0.02025  -0.06387  -0.02228
 168        3S         -0.14478   0.02315  -0.00641  -0.08749   0.00490
 169        4S         -0.03742  -0.00872   0.01184  -0.01050   0.01123
 170        5PX         0.00807  -0.15648  -0.00969  -0.02916   0.14254
 171        5PY        -0.10050  -0.06242   0.07244   0.01859  -0.11477
 172        5PZ         0.06512   0.05851   0.03064   0.05167  -0.00384
 173        6PX        -0.01220  -0.10432  -0.00128  -0.01815   0.08556
 174        6PY        -0.02421  -0.04872   0.02696   0.01117  -0.04131
 175        6PZ         0.04648   0.03770   0.01399   0.02978   0.01000
 176        7PX        -0.00560  -0.01411  -0.00064  -0.00304   0.01358
 177        7PY        -0.00547  -0.00953   0.00553   0.00522  -0.01001
 178        7PZ        -0.00242   0.00507   0.00908   0.00650  -0.00176
 179        8D 0        0.00172   0.00220   0.00055   0.00237  -0.00101
 180        8D+1        0.00191  -0.00431  -0.00027  -0.00113   0.00484
 181        8D-1       -0.00668  -0.00127   0.00280   0.00120  -0.00497
 182        8D+2        0.00021  -0.00048  -0.00101   0.00068   0.00171
 183        8D-2       -0.00049   0.00100  -0.00086   0.00144  -0.00095
 184        9D 0        0.00524   0.00486   0.00237   0.00168  -0.00282
 185        9D+1       -0.00203  -0.00737   0.00158  -0.00321   0.00368
 186        9D-1        0.00689  -0.00360  -0.00568  -0.00105   0.00931
 187        9D+2       -0.00268  -0.00247   0.00291   0.00313  -0.00220
 188        9D-2        0.00017   0.00670   0.00088  -0.00055  -0.00641
 189 9   H  1S         -0.08531   0.01238   0.07065   0.01604  -0.11175
 190        2S          0.01025   0.00319   0.00083   0.00827  -0.00150
 191        3S         -0.00116  -0.00111   0.00082   0.00012   0.00542
 192        4PX        -0.00334  -0.00563   0.00167   0.00011   0.00179
 193        4PY         0.00988  -0.00496  -0.00521  -0.00170   0.00971
 194        4PZ         0.01019   0.00046  -0.00523   0.00220   0.00959
 195        5PX         0.00055  -0.00334  -0.00205   0.00347   0.00289
 196        5PY         0.00001  -0.00403   0.00314  -0.00402  -0.00487
 197        5PZ         0.00058  -0.00263  -0.00109   0.00542   0.00084
                           6         7         8         9        10
     Eigenvalues --     2.00000   2.00000   2.00000   2.00000   2.00000
   1 1   S  1S          0.10099  -0.16865  -0.15063   0.05690   0.05297
   2        2S         -0.12384   0.23075   0.34421  -0.08215   0.05557
   3        3S         -0.06159   0.00493  -0.00411  -0.06261   0.10587
   4        4S         -0.14364  -0.03681   0.03312  -0.01535   0.04933
   5        5S         -0.00280  -0.07541  -0.03767  -0.07180  -0.07770
   6        6PX         0.15472  -0.23569  -0.10472  -0.01766  -0.07445
   7        6PY        -0.11713   0.03858  -0.20441  -0.03697   0.02372
   8        6PZ        -0.15878  -0.15835  -0.04547  -0.17151  -0.07884
   9        7PX        -0.07400  -0.06365   0.09271   0.05226   0.03342
  10        7PY         0.03363   0.07001  -0.06975  -0.00555  -0.03066
  11        7PZ        -0.06894  -0.01981   0.00522   0.00387   0.13401
  12        8PX        -0.01500   0.01722   0.02020   0.03966   0.03567
  13        8PY        -0.06572   0.03151   0.00028  -0.00794   0.02449
  14        8PZ         0.02572  -0.02962  -0.00137  -0.00386  -0.00189
  15        9PX         0.00530  -0.01038  -0.01208  -0.00805  -0.00930
  16        9PY         0.00284   0.00743  -0.02189  -0.00295   0.00330
  17        9PZ        -0.00918  -0.00579   0.00591   0.00812   0.02066
  18       10D 0       -0.01225   0.00550  -0.03488   0.01237   0.06411
  19       10D+1        0.03244  -0.00265   0.02653   0.00265  -0.04022
  20       10D-1       -0.05035  -0.03811   0.05117   0.00843   0.02381
  21       10D+2       -0.02542  -0.00056  -0.03897   0.00368   0.04198
  22       10D-2       -0.02046  -0.00767   0.02040   0.00180  -0.00864
  23       11D 0        0.01073  -0.01560   0.01092   0.00131  -0.02115
  24       11D+1       -0.00992   0.00649  -0.00498   0.00967   0.01731
  25       11D-1        0.03537  -0.01631  -0.01025  -0.00309  -0.02847
  26       11D+2        0.01534   0.01145   0.00183   0.00763   0.00025
  27       11D-2       -0.00349   0.00804  -0.01015   0.00014  -0.00432
  28 2   C  1S         -0.12623  -0.04798  -0.03993  -0.01194   0.12829
  29        2S         -0.01281  -0.10698   0.06341  -0.08940   0.02587
  30        3S         -0.08260  -0.03763  -0.00184   0.03347  -0.00348
  31        4S         -0.05624   0.01867   0.01711   0.03715   0.04181
  32        5PX         0.07725  -0.04592  -0.01733  -0.07460  -0.03576
  33        5PY        -0.10108  -0.00232   0.01996  -0.07971   0.07031
  34        5PZ         0.07686   0.08583  -0.11936  -0.00292  -0.06840
  35        6PX        -0.00352   0.03504  -0.00769   0.02471  -0.00779
  36        6PY         0.00184  -0.01040   0.02535   0.00989  -0.00636
  37        6PZ         0.00957   0.02458  -0.00898  -0.02698  -0.02013
  38        7PX         0.01532  -0.00014   0.00180  -0.00482  -0.01260
  39        7PY        -0.00076  -0.00437   0.01614  -0.00969   0.00422
  40        7PZ        -0.00036   0.01110  -0.00976  -0.01303  -0.01520
  41        8D 0        0.01259  -0.01457   0.01138   0.02699   0.00637
  42        8D+1        0.00805   0.00513  -0.01444  -0.00402  -0.01370
  43        8D-1        0.00891  -0.00207   0.02152  -0.01273   0.00852
  44        8D+2       -0.00686  -0.01426  -0.00218   0.01836   0.00809
  45        8D-2        0.01010   0.00232   0.00417  -0.00372   0.02788
  46        9D 0       -0.00619   0.01055  -0.01137   0.00914   0.00670
  47        9D+1       -0.00206   0.00177   0.00173   0.00103   0.00305
  48        9D-1        0.00015  -0.00257   0.00366   0.01049  -0.00700
  49        9D+2        0.00746  -0.01379  -0.00425  -0.01641   0.00754
  50        9D-2       -0.00717  -0.00298   0.00076   0.00424  -0.00328
  51 3   O  1S         -0.09650  -0.16935  -0.01682  -0.00228  -0.20470
  52        2S          0.03083   0.08298  -0.07683   0.08914   0.09563
  53        3S          0.06032   0.12502  -0.08137   0.10899   0.09185
  54        4S          0.02891   0.06185   0.00840   0.04595   0.00526
  55        5PX         0.03542  -0.05716   0.16827   0.02279  -0.02197
  56        5PY         0.00217  -0.03833   0.21875   0.04875  -0.17969
  57        5PZ         0.10870   0.02822   0.01844   0.03597  -0.12935
  58        6PX         0.03688  -0.03399   0.11989   0.01539  -0.03246
  59        6PY        -0.00422  -0.02755   0.15126   0.03442  -0.11421
  60        6PZ         0.03881   0.00424   0.00693   0.01265  -0.05062
  61        7PX         0.01541   0.00119   0.02487   0.00632  -0.01081
  62        7PY        -0.00367  -0.01050   0.03726   0.00636  -0.01994
  63        7PZ         0.00935  -0.00859  -0.00323  -0.00965  -0.01283
  64        8D 0       -0.00286   0.00139  -0.00239  -0.00115   0.00505
  65        8D+1        0.00083   0.00171  -0.00474  -0.00096  -0.00242
  66        8D-1       -0.00088   0.00104  -0.00631  -0.00134   0.00732
  67        8D+2        0.00004  -0.00091   0.00280   0.00055  -0.00098
  68        8D-2       -0.00007   0.00002   0.00051  -0.00002  -0.00212
  69        9D 0        0.00583   0.00248  -0.00349  -0.00025  -0.00636
  70        9D+1       -0.00644   0.00228  -0.01219  -0.00269   0.00821
  71        9D-1        0.00102   0.00088  -0.01040  -0.00277   0.00671
  72        9D+2       -0.00019  -0.00027   0.00547   0.00329  -0.00267
  73        9D-2       -0.00259   0.00108   0.00256   0.00154  -0.00259
  74 4   O  1S         -0.04839  -0.43745  -0.17696   0.15709  -0.22783
  75        2S          0.01904   0.02103   0.04509   0.02732   0.01044
  76        3S          0.02744   0.06905   0.03279   0.03083   0.04186
  77        4S          0.00765   0.05486  -0.01063   0.02026   0.05326
  78        5PX        -0.02822  -0.03368   0.03375   0.00121   0.03640
  79        5PY        -0.05916  -0.07686   0.00939  -0.02962   0.03844
  80        5PZ         0.07180   0.00781   0.14771  -0.01056  -0.17897
  81        6PX        -0.01761  -0.00821   0.00888   0.00063   0.03064
  82        6PY        -0.02637  -0.02971  -0.02462  -0.01779   0.04523
  83        6PZ         0.05928   0.01650   0.08949  -0.00121  -0.11760
  84        7PX         0.00073   0.00819  -0.00199  -0.00037   0.00717
  85        7PY        -0.00942   0.00049   0.00024   0.00180   0.01817
  86        7PZ         0.01784   0.01051   0.01713   0.00161  -0.02885
  87        8D 0        0.00178   0.00119   0.00223   0.00021  -0.00287
  88        8D+1       -0.00017  -0.00075   0.00224   0.00018  -0.00012
  89        8D-1        0.00071  -0.00057   0.00313  -0.00144  -0.00184
  90        8D+2        0.00029   0.00037   0.00116   0.00140  -0.00118
  91        8D-2       -0.00196  -0.00213   0.00162   0.00010   0.00218
  92        9D 0        0.00172  -0.00002   0.00787   0.00247  -0.00617
  93        9D+1        0.00192   0.00092   0.00154   0.00059  -0.00141
  94        9D-1        0.00552   0.00348  -0.00076   0.00070  -0.00148
  95        9D+2       -0.00202   0.00015   0.01075   0.00127  -0.00401
  96        9D-2       -0.00113   0.00231  -0.00502  -0.00004   0.00600
  97 5   F  1S         -0.06059  -0.07499  -0.00555   0.06294   0.13753
  98        2S          0.08725   0.05062   0.03058  -0.19915  -0.04834
  99        3S          0.11820   0.07712   0.02137  -0.23631  -0.07431
 100        4S          0.02235   0.02482  -0.01064  -0.05398  -0.00750
 101        5PX        -0.07688   0.01652  -0.10615   0.00091   0.04087
 102        5PY        -0.21126  -0.10378  -0.22176   0.15008   0.09271
 103        5PZ        -0.01469  -0.19502   0.18905   0.08101   0.10880
 104        6PX        -0.05072   0.00121  -0.05917   0.00828   0.03002
 105        6PY        -0.13279  -0.06227  -0.14492   0.09256   0.05371
 106        6PZ         0.00222  -0.10160   0.10108   0.03611   0.05883
 107        7PX        -0.01178  -0.00159  -0.00890   0.00713   0.00334
 108        7PY        -0.01685  -0.00715  -0.02773   0.01970   0.00213
 109        7PZ        -0.00016  -0.00825   0.01047   0.00460   0.01538
 110        8D 0        0.00053  -0.00502   0.00473  -0.00235   0.00139
 111        8D+1       -0.00063   0.00220  -0.00421   0.00040  -0.00054
 112        8D-1       -0.00367  -0.00254  -0.00133   0.00064   0.00274
 113        8D+2        0.00096  -0.00033   0.00123   0.00016  -0.00030
 114        8D-2        0.00152   0.00069   0.00051  -0.00036  -0.00056
 115        9D 0        0.00460  -0.00190   0.00238  -0.00194  -0.00023
 116        9D+1       -0.00106  -0.00156  -0.00234   0.00266   0.00048
 117        9D-1       -0.00768  -0.00293  -0.00766   0.00220   0.00210
 118        9D+2        0.00004   0.00149   0.00077   0.00016   0.00055
 119        9D-2        0.00385   0.00114   0.00187  -0.00040   0.00157
 120 6   F  1S         -0.11552   0.18419   0.16744   0.45071  -0.32030
 121        2S          0.06604   0.05276  -0.07774  -0.05936   0.02303
 122        3S          0.09193   0.05139  -0.10048  -0.07768   0.03885
 123        4S          0.02850  -0.00604  -0.00929  -0.01497   0.00523
 124        5PX         0.23446  -0.03119  -0.04583   0.00610   0.22060
 125        5PY        -0.12267   0.04791  -0.05908   0.14434  -0.13808
 126        5PZ         0.17840  -0.06712  -0.07118   0.25015   0.06401
 127        6PX         0.14968  -0.01911  -0.02852  -0.00251   0.14453
 128        6PY        -0.08971   0.03316  -0.03416   0.07949  -0.08515
 129        6PZ         0.10851  -0.04369  -0.04317   0.15663   0.04425
 130        7PX         0.02201   0.00183  -0.01144   0.00067   0.02567
 131        7PY        -0.01850   0.00642  -0.00797   0.01386  -0.01624
 132        7PZ         0.01287  -0.01184  -0.00340   0.02614   0.01369
 133        8D 0       -0.00183   0.00052   0.00033   0.00128  -0.00059
 134        8D+1       -0.00235   0.00038   0.00073  -0.00151  -0.00087
 135        8D-1       -0.00293  -0.00071   0.00160  -0.00567   0.00131
 136        8D+2       -0.00303   0.00168  -0.00016   0.00378  -0.00255
 137        8D-2       -0.00293   0.00040   0.00084  -0.00174  -0.00137
 138        9D 0       -0.00376   0.00142  -0.00051  -0.00285  -0.00019
 139        9D+1       -0.00545   0.00001   0.00113  -0.00199  -0.00310
 140        9D-1       -0.00269   0.00031   0.00388  -0.00809  -0.00172
 141        9D+2       -0.01019   0.00223   0.00189   0.00240  -0.00687
 142        9D-2       -0.00641   0.00016   0.00195   0.00265  -0.00514
 143 7   F  1S         -0.07134  -0.08945  -0.00971  -0.12438  -0.09114
 144        2S          0.07501  -0.14979   0.11439   0.02861   0.04777
 145        3S          0.07904  -0.16936   0.14421   0.03300   0.07211
 146        4S          0.03187  -0.03747   0.03567   0.00413   0.00018
 147        5PX        -0.23907  -0.12687  -0.03338  -0.10041  -0.12060
 148        5PY        -0.01845  -0.03957  -0.11555   0.07598  -0.17066
 149        5PZ         0.03768  -0.03699   0.13143   0.21513   0.18842
 150        6PX        -0.15503  -0.07700  -0.03150  -0.06414  -0.08432
 151        6PY        -0.01604  -0.03110  -0.05710   0.04522  -0.09518
 152        6PZ         0.02536  -0.01893   0.07188   0.13849   0.10578
 153        7PX        -0.03435  -0.00977  -0.00965  -0.00681  -0.01179
 154        7PY        -0.00355  -0.00756  -0.00635   0.01370  -0.01882
 155        7PZ         0.00312  -0.00358   0.01222   0.02125   0.02165
 156        8D 0       -0.00091  -0.00039   0.00056  -0.00306  -0.00176
 157        8D+1        0.00281   0.00060  -0.00011  -0.00034  -0.00049
 158        8D-1       -0.00175   0.00214   0.00163   0.00240   0.00380
 159        8D+2       -0.00020   0.00191   0.00126   0.00057   0.00240
 160        8D-2       -0.00340  -0.00034   0.00034  -0.00160   0.00032
 161        9D 0       -0.00178  -0.00093  -0.00096  -0.00670  -0.00217
 162        9D+1        0.00550   0.00087   0.00233  -0.00001   0.00355
 163        9D-1        0.00442   0.00336  -0.00045   0.00480   0.00223
 164        9D+2        0.00601   0.00406   0.00211   0.00230   0.00326
 165        9D-2       -0.00403  -0.00129  -0.00335  -0.00287  -0.00295
 166 8   O  1S         -0.20322   0.23656   0.18364   0.08945   0.07053
 167        2S          0.17925  -0.08225  -0.05575   0.00488  -0.09832
 168        3S          0.23417  -0.07363  -0.06970   0.03045  -0.11133
 169        4S          0.03903  -0.00827  -0.02228   0.02965   0.00348
 170        5PX        -0.04544   0.05419   0.02017   0.02477   0.02101
 171        5PY        -0.10033  -0.16135   0.04822  -0.03304   0.08056
 172        5PZ         0.10347   0.02448  -0.06528  -0.11594  -0.06856
 173        6PX        -0.02146   0.02139   0.00976   0.01514   0.00813
 174        6PY        -0.10151  -0.05789   0.03890  -0.00660   0.06681
 175        6PZ         0.07285   0.02928  -0.04639  -0.06388  -0.03992
 176        7PX        -0.00059   0.00855  -0.00818   0.00514   0.00541
 177        7PY        -0.01711  -0.01214   0.00861  -0.00627   0.00321
 178        7PZ         0.01608  -0.00079  -0.02134  -0.00903  -0.00514
 179        8D 0        0.00257   0.00078  -0.00074  -0.00308  -0.00272
 180        8D+1       -0.00088   0.00183   0.00078   0.00079   0.00005
 181        8D-1       -0.00257  -0.00695   0.00196  -0.00127   0.00241
 182        8D+2       -0.00251   0.00221   0.00226   0.00134   0.00082
 183        8D-2       -0.00127   0.00114   0.00088   0.00048   0.00032
 184        9D 0        0.00529   0.00080  -0.00485  -0.00614   0.00252
 185        9D+1       -0.00137  -0.00348   0.00153  -0.00074  -0.00166
 186        9D-1       -0.01461   0.01157   0.00457   0.00582   0.00730
 187        9D+2       -0.00123  -0.00499  -0.00176  -0.00308  -0.00300
 188        9D-2        0.00109  -0.00209  -0.00161  -0.00516  -0.00050
 189 9   H  1S          0.04980  -0.14300  -0.02186  -0.07516  -0.01625
 190        2S          0.00673  -0.00491   0.02339  -0.00657  -0.01782
 191        3S          0.00656   0.00357  -0.00167   0.00237   0.00005
 192        4PX         0.00139  -0.00290   0.00099  -0.00113  -0.00082
 193        4PY        -0.01330   0.01209   0.00266   0.00769   0.00889
 194        4PZ        -0.00330   0.01376   0.00298   0.00317  -0.00132
 195        5PX         0.00215   0.00114   0.00865   0.00206  -0.00791
 196        5PY        -0.01032  -0.00519  -0.00834  -0.00330   0.01768
 197        5PZ        -0.00237   0.00050   0.01016   0.00117  -0.00226
                          11        12        13        14        15
     Eigenvalues --     2.00000   2.00000   2.00000   2.00000   2.00000
   1 1   S  1S         -0.07350   0.02830  -0.11701  -0.11753  -0.04264
   2        2S          0.11238  -0.13502   0.41782   0.10084   0.08733
   3        3S         -0.08495   0.09027   0.00551  -0.12541   0.00420
   4        4S         -0.00205  -0.00192   0.00520  -0.02806   0.01878
   5        5S          0.03253  -0.10792   0.05264   0.06339  -0.06372
   6        6PX         0.00131  -0.09391   0.01529  -0.11201   0.21923
   7        6PY        -0.10045   0.45772   0.10377  -0.13075  -0.11663
   8        6PZ         0.24216  -0.04235   0.25540  -0.16846   0.02380
   9        7PX         0.04869   0.03985  -0.15667  -0.01267  -0.07618
  10        7PY         0.07472  -0.01579   0.02804  -0.00177  -0.06471
  11        7PZ        -0.06550   0.03286   0.03842  -0.06841  -0.19970
  12        8PX         0.01667   0.02503  -0.05082  -0.02561  -0.03624
  13        8PY        -0.01941  -0.01567  -0.01552   0.00337   0.04640
  14        8PZ        -0.01091   0.01104  -0.00269   0.01879  -0.03422
  15        9PX        -0.00581  -0.00479   0.00828   0.01226  -0.01763
  16        9PY        -0.01143  -0.00916   0.00685   0.01605  -0.00654
  17        9PZ         0.00844  -0.00494   0.00771  -0.00155   0.00616
  18       10D 0        0.03060  -0.05947   0.02333   0.01092  -0.02013
  19       10D+1       -0.00688  -0.00765  -0.01850   0.02983  -0.00091
  20       10D-1        0.02167  -0.02117  -0.03092  -0.02721   0.03012
  21       10D+2       -0.03396   0.01995   0.04336   0.03754  -0.02188
  22       10D-2       -0.02062   0.00537  -0.00149   0.00505   0.01399
  23       11D 0        0.00783  -0.01009  -0.00559   0.01375   0.00882
  24       11D+1       -0.00091  -0.00010   0.00115   0.00166  -0.00128
  25       11D-1        0.02514  -0.00938   0.00453   0.00944  -0.01637
  26       11D+2       -0.00279   0.01591   0.00258  -0.00497   0.00825
  27       11D-2        0.00723   0.00462   0.00682   0.00128  -0.00175
  28 2   C  1S          0.24333   0.00917  -0.05882  -0.01483   0.08744
  29        2S         -0.08834   0.20355   0.01186   0.01505   0.06008
  30        3S         -0.08292   0.11312  -0.03945   0.03209   0.00709
  31        4S         -0.03357   0.04845  -0.03057  -0.01747   0.03711
  32        5PX         0.06110  -0.07739   0.00388  -0.02819   0.11123
  33        5PY        -0.06229  -0.08092   0.04711  -0.05051  -0.00631
  34        5PZ        -0.03874   0.06098  -0.00670   0.11623   0.03697
  35        6PX         0.04258  -0.04859   0.00118  -0.01346   0.02412
  36        6PY        -0.00303  -0.01025   0.02553   0.02127  -0.02974
  37        6PZ        -0.00200  -0.00203   0.00615  -0.02714  -0.01699
  38        7PX         0.01613  -0.01592   0.00628   0.00165  -0.00089
  39        7PY        -0.00507  -0.00293  -0.00033  -0.00869   0.00471
  40        7PZ        -0.00409   0.00082  -0.01188   0.00817  -0.00008
  41        8D 0        0.01995   0.00637   0.02196  -0.00799   0.00363
  42        8D+1       -0.00181   0.00504   0.00526   0.01479   0.01000
  43        8D-1       -0.00563  -0.00262   0.02083  -0.02865   0.01242
  44        8D+2        0.01188   0.00311  -0.00289  -0.01136  -0.00213
  45        8D-2       -0.00970  -0.01335  -0.00540  -0.01454  -0.00101
  46        9D 0       -0.00231  -0.00810   0.00050   0.01505   0.00667
  47        9D+1        0.00625  -0.00410   0.00224  -0.01123   0.00533
  48        9D-1        0.00423   0.00537   0.00014   0.01708   0.00209
  49        9D+2       -0.01017   0.00732  -0.00397   0.00280   0.00632
  50        9D-2        0.00171   0.00558  -0.00212   0.01046   0.00464
  51 3   O  1S         -0.18315   0.06662  -0.15389  -0.15938  -0.21308
  52        2S         -0.00422   0.02399  -0.01987  -0.15383  -0.11223
  53        3S          0.00043   0.04167  -0.03632  -0.16835  -0.09701
  54        4S         -0.01009   0.05266  -0.02680  -0.05701   0.01372
  55        5PX         0.05277  -0.09280  -0.12021   0.01048  -0.12270
  56        5PY         0.16279   0.07479  -0.14931  -0.13344   0.06905
  57        5PZ        -0.01072  -0.01568  -0.07077   0.08243   0.03508
  58        6PX         0.03316  -0.05717  -0.08406   0.00501  -0.07786
  59        6PY         0.10994   0.05476  -0.09438  -0.09520   0.04021
  60        6PZ        -0.00590  -0.02991  -0.02832   0.05159   0.00603
  61        7PX         0.00978  -0.01229  -0.01290  -0.00307  -0.00807
  62        7PY         0.02100   0.01311  -0.01959  -0.02308   0.00726
  63        7PZ        -0.00472  -0.00975  -0.00268   0.01465  -0.00819
  64        8D 0       -0.00117   0.00342   0.00318  -0.00711  -0.00246
  65        8D+1       -0.00108   0.00099   0.00444   0.00299   0.00665
  66        8D-1       -0.00651   0.00009   0.00517   0.00107  -0.00369
  67        8D+2        0.00166  -0.00023  -0.00241  -0.00062  -0.00112
  68        8D-2        0.00152   0.00067  -0.00002  -0.00047   0.00228
  69        9D 0       -0.00109   0.00864  -0.00105  -0.00296   0.00537
  70        9D+1       -0.00234  -0.00158   0.01059   0.00288   0.00746
  71        9D-1       -0.01031  -0.00358   0.00289   0.00713   0.00126
  72        9D+2        0.00379   0.00011  -0.00245  -0.00157  -0.00230
  73        9D-2        0.00309   0.00286   0.00072  -0.00258   0.00320
  74 4   O  1S         -0.13339  -0.19885   0.08748   0.00313   0.07067
  75        2S         -0.12694  -0.02880  -0.13548   0.01362   0.12050
  76        3S         -0.14991  -0.01497  -0.15568   0.02347   0.11632
  77        4S         -0.05438   0.02250  -0.02983  -0.00352   0.02067
  78        5PX         0.14469  -0.03541  -0.09408  -0.08810   0.04180
  79        5PY         0.01337  -0.07979   0.03789   0.02263   0.12699
  80        5PZ        -0.06540   0.21208  -0.05452  -0.14971  -0.02398
  81        6PX         0.09238  -0.02247  -0.05574  -0.05287   0.02750
  82        6PY        -0.00247  -0.04938   0.03056   0.02605   0.05775
  83        6PZ        -0.04196   0.14397  -0.03724  -0.09674  -0.02904
  84        7PX         0.01709  -0.00626  -0.00738  -0.01217   0.00924
  85        7PY        -0.00613  -0.00635  -0.00061   0.00173   0.00796
  86        7PZ        -0.00846   0.03030  -0.01094  -0.01691  -0.00396
  87        8D 0       -0.00210   0.00462  -0.00019  -0.00263  -0.00443
  88        8D+1        0.00057   0.00159  -0.00297  -0.00275   0.00029
  89        8D-1       -0.00579   0.00555  -0.00119  -0.00422   0.00252
  90        8D+2        0.00303   0.00205  -0.00167  -0.00148  -0.00579
  91        8D-2        0.00308  -0.00114  -0.00461  -0.00253   0.00318
  92        9D 0       -0.00095   0.00922  -0.00225  -0.00639  -0.00446
  93        9D+1        0.00173   0.00395  -0.00453  -0.00338  -0.00342
  94        9D-1       -0.00526   0.00824  -0.00078  -0.00527  -0.00860
  95        9D+2        0.00389   0.00080  -0.00549  -0.00482   0.00171
  96        9D-2        0.00436  -0.00209  -0.00278  -0.00002   0.00081
  97 5   F  1S          0.13703   0.24862  -0.15009   0.28722   0.00273
  98        2S          0.09147  -0.07737   0.09041  -0.08595  -0.06794
  99        3S          0.09054  -0.09778   0.10945  -0.10388  -0.08545
 100        4S          0.02037  -0.02155   0.02352  -0.03694  -0.02583
 101        5PX         0.00853  -0.05042  -0.11742  -0.00913   0.01549
 102        5PY         0.05165  -0.05279  -0.04982   0.04100  -0.06655
 103        5PZ         0.02844   0.09314   0.02169  -0.12841   0.08564
 104        6PX         0.00467  -0.02541  -0.07504  -0.00748   0.01412
 105        6PY         0.03384  -0.03226  -0.03131   0.02598  -0.04067
 106        6PZ         0.01304   0.05097   0.01645  -0.07084   0.04768
 107        7PX        -0.00397   0.00263  -0.01349   0.00322  -0.00082
 108        7PY         0.00969  -0.00151  -0.00488   0.00731  -0.00799
 109        7PZ         0.00859  -0.00185   0.01011  -0.02112  -0.00031
 110        8D 0        0.00087   0.00223   0.00065  -0.00385   0.00225
 111        8D+1        0.00026  -0.00251  -0.00230   0.00159   0.00054
 112        8D-1        0.00034  -0.00137  -0.00038  -0.00078  -0.00099
 113        8D+2       -0.00011   0.00113   0.00082  -0.00035  -0.00002
 114        8D-2       -0.00008   0.00016  -0.00025  -0.00002   0.00049
 115        9D 0       -0.00199   0.00413   0.00089  -0.00010   0.00373
 116        9D+1        0.00292  -0.00332  -0.00326  -0.00132   0.00321
 117        9D-1        0.00082  -0.00154   0.00028   0.00031  -0.00053
 118        9D+2        0.00077   0.00035   0.00273   0.00029   0.00004
 119        9D-2        0.00020  -0.00058  -0.00164  -0.00061   0.00138
 120 6   F  1S         -0.25884  -0.22546   0.24255  -0.15295  -0.04997
 121        2S          0.00645  -0.02145   0.01280  -0.11513   0.06322
 122        3S          0.02851  -0.01670   0.00194  -0.11998   0.07195
 123        4S          0.01072  -0.00791  -0.02001  -0.02902   0.02534
 124        5PX        -0.00542  -0.13919  -0.14087  -0.11659   0.01987
 125        5PY         0.15052  -0.00721  -0.07811   0.06599  -0.11096
 126        5PZ         0.08815   0.10201   0.20831  -0.10998   0.12660
 127        6PX        -0.01244  -0.08736  -0.08621  -0.07406   0.00878
 128        6PY         0.07902  -0.00592  -0.04431   0.04344  -0.06577
 129        6PZ         0.04947   0.06407   0.13209  -0.06991   0.07992
 130        7PX        -0.01010  -0.00943  -0.00806  -0.00615  -0.01014
 131        7PY         0.01102   0.00835   0.00100   0.01622  -0.01415
 132        7PZ         0.00791   0.01108   0.02655  -0.01816   0.00955
 133        8D 0        0.00160  -0.00223  -0.00232   0.00066  -0.00245
 134        8D+1       -0.00092   0.00044  -0.00007   0.00069  -0.00061
 135        8D-1       -0.00272  -0.00141  -0.00227  -0.00037  -0.00044
 136        8D+2        0.00257  -0.00075  -0.00121   0.00161  -0.00366
 137        8D-2       -0.00234   0.00315   0.00263   0.00111   0.00005
 138        9D 0        0.00043  -0.00408  -0.00288   0.00072  -0.00304
 139        9D+1       -0.00015   0.00157   0.00122   0.00229  -0.00156
 140        9D-1       -0.00181  -0.00187  -0.00443   0.00046  -0.00266
 141        9D+2        0.00248  -0.00113  -0.00084   0.00247  -0.00285
 142        9D-2       -0.00063   0.00727   0.00360   0.00351  -0.00133
 143 7   F  1S         -0.18826  -0.10914  -0.00704  -0.23654  -0.10931
 144        2S         -0.07500   0.02181   0.10893   0.20135  -0.11615
 145        3S         -0.07507   0.00885   0.13338   0.22362  -0.13304
 146        4S         -0.00201  -0.00856   0.03031   0.04984  -0.02938
 147        5PX         0.01743  -0.04038   0.10390  -0.04600   0.01871
 148        5PY         0.12526   0.18611   0.05228   0.08867   0.12967
 149        5PZ         0.07384  -0.04087   0.13323  -0.06630  -0.05046
 150        6PX         0.00950  -0.01462   0.05856  -0.02444   0.01659
 151        6PY         0.07717   0.10617   0.04220   0.04757   0.07153
 152        6PZ         0.05008  -0.01314   0.07373  -0.03545  -0.02280
 153        7PX        -0.00566   0.00820   0.00699  -0.00239   0.00042
 154        7PY         0.01804   0.01212   0.01026   0.01640   0.00044
 155        7PZ         0.00903   0.00400   0.01163  -0.01737  -0.00051
 156        8D 0       -0.00066  -0.00079  -0.00143  -0.00039   0.00002
 157        8D+1       -0.00138   0.00276  -0.00154   0.00249  -0.00001
 158        8D-1        0.00037  -0.00460   0.00060  -0.00339  -0.00272
 159        8D+2       -0.00109  -0.00192  -0.00203  -0.00110  -0.00274
 160        8D-2        0.00047  -0.00420   0.00029  -0.00313  -0.00062
 161        9D 0       -0.00247  -0.00272  -0.00222  -0.00199   0.00032
 162        9D+1       -0.00280   0.00221  -0.00142  -0.00058  -0.00152
 163        9D-1        0.00213  -0.00169  -0.00136  -0.00110  -0.00029
 164        9D+2       -0.00201  -0.00229  -0.00390   0.00073  -0.00407
 165        9D-2        0.00164  -0.00358  -0.00147  -0.00220   0.00188
 166 8   O  1S          0.01636  -0.03950  -0.14525   0.13838  -0.12117
 167        2S          0.16802  -0.02564   0.03353   0.01138  -0.19958
 168        3S          0.20132   0.00316   0.04901   0.00734  -0.19734
 169        4S          0.03408   0.02845   0.01522   0.01897  -0.04116
 170        5PX         0.13160  -0.03450  -0.06552  -0.11418   0.11732
 171        5PY        -0.03025  -0.06844  -0.03953  -0.02600  -0.06823
 172        5PZ        -0.12137  -0.06399  -0.02758   0.01014   0.00226
 173        6PX         0.09445  -0.02955  -0.04593  -0.07424   0.06564
 174        6PY        -0.02412  -0.03346  -0.01836  -0.01319   0.00691
 175        6PZ        -0.07884  -0.03188  -0.01290   0.01045   0.01133
 176        7PX         0.01793  -0.00744  -0.00312  -0.00719   0.01073
 177        7PY        -0.00277  -0.00402  -0.00439  -0.00740   0.00391
 178        7PZ        -0.01702  -0.00663   0.00500   0.01822  -0.01397
 179        8D 0       -0.00252  -0.00046  -0.00120  -0.00139  -0.00077
 180        8D+1        0.00348   0.00007  -0.00227  -0.00332   0.00278
 181        8D-1       -0.00183  -0.00411  -0.00178   0.00094  -0.00428
 182        8D+2       -0.00109   0.00248  -0.00120  -0.00127   0.00172
 183        8D-2       -0.00124   0.00040   0.00063   0.00004   0.00164
 184        9D 0       -0.01074  -0.00586   0.00133   0.00213  -0.00242
 185        9D+1        0.00726  -0.00509  -0.00699  -0.00431  -0.00128
 186        9D-1       -0.00144   0.00167   0.00075   0.00367   0.01578
 187        9D+2       -0.00006  -0.00821  -0.00107   0.00410  -0.00701
 188        9D-2       -0.00797  -0.00224   0.00331   0.00445  -0.00469
 189 9   H  1S         -0.02862  -0.08047  -0.01568   0.00824  -0.13095
 190        2S          0.00029   0.00133  -0.02137  -0.02173   0.01497
 191        3S          0.00329   0.00101   0.00037  -0.00104   0.00100
 192        4PX         0.00547  -0.00354  -0.00317  -0.00544  -0.00019
 193        4PY        -0.00133   0.00508   0.00155   0.00104   0.01655
 194        4PZ        -0.00135   0.00655  -0.00158  -0.00290   0.01471
 195        5PX         0.00513   0.00174  -0.00518  -0.00566   0.00444
 196        5PY        -0.00716  -0.01322   0.00637   0.00730  -0.00119
 197        5PZ         0.00155   0.00457  -0.00652  -0.00753   0.00650
                          16        17        18        19        20
     Eigenvalues --     2.00000   2.00000   2.00000   2.00000   2.00000
   1 1   S  1S         -0.01362   0.07943  -0.06209   0.04289   0.05267
   2        2S          0.06829  -0.00815  -0.01607  -0.07514   0.01462
   3        3S         -0.01948  -0.03505  -0.11964   0.05169  -0.00721
   4        4S          0.04956  -0.05763   0.03471  -0.03625   0.08510
   5        5S          0.02913  -0.00590   0.02528  -0.13571   0.11815
   6        6PX        -0.03410  -0.10734  -0.01609  -0.24342  -0.20296
   7        6PY         0.03727  -0.12712   0.23024  -0.43599   0.05096
   8        6PZ         0.12476   0.21609   0.04660   0.02199   0.07857
   9        7PX         0.06067   0.14025  -0.04476   0.06704   0.00490
  10        7PY         0.15152   0.06327   0.04757   0.09312   0.00384
  11        7PZ         0.13165  -0.03879  -0.04791   0.07674  -0.05674
  12        8PX         0.01537   0.02927  -0.04176   0.02042  -0.02084
  13        8PY         0.00724   0.00912   0.02159   0.00487  -0.01229
  14        8PZ         0.02666  -0.01392   0.02121  -0.01399   0.00324
  15        9PX         0.00191   0.00215  -0.00547  -0.01332   0.00254
  16        9PY         0.00246   0.00027   0.00535  -0.00150   0.00695
  17        9PZ        -0.00172   0.00030   0.01072   0.01039  -0.00741
  18       10D 0       -0.02842   0.04717   0.00151   0.02213  -0.00786
  19       10D+1       -0.01964  -0.00682   0.02336   0.00152  -0.03567
  20       10D-1        0.01570   0.00994   0.01353  -0.03238  -0.01291
  21       10D+2        0.00798   0.01318   0.02030   0.03980  -0.01638
  22       10D-2       -0.02837  -0.01305  -0.00165   0.00274  -0.03135
  23       11D 0       -0.00865   0.00135   0.02033  -0.01917   0.00290
  24       11D+1        0.00677   0.00612  -0.00440   0.00541  -0.00325
  25       11D-1        0.01317   0.01763   0.00904  -0.00662   0.01998
  26       11D+2       -0.00886  -0.01459  -0.00210  -0.00224  -0.01538
  27       11D-2       -0.00179   0.00979  -0.00495   0.01441   0.00086
  28 2   C  1S         -0.00878   0.12207   0.05221  -0.14703  -0.13309
  29        2S         -0.00652   0.04327   0.06771   0.19950   0.00400
  30        3S          0.05689   0.07081   0.03297   0.08359   0.00874
  31        4S          0.02567  -0.00791   0.01927   0.03645  -0.03573
  32        5PX        -0.03502  -0.03239   0.01934  -0.07200   0.05885
  33        5PY        -0.01317  -0.06639   0.06427   0.02524  -0.04382
  34        5PZ         0.10841   0.12159   0.00759  -0.02996   0.02982
  35        6PX        -0.00806  -0.01902   0.00934  -0.05024   0.02559
  36        6PY         0.03351  -0.01817  -0.00687  -0.02364  -0.01628
  37        6PZ         0.01698  -0.00886  -0.00616   0.00195  -0.01348
  38        7PX        -0.01203   0.00165   0.00088  -0.00740   0.00946
  39        7PY        -0.00155   0.00115  -0.00352  -0.00503   0.00407
  40        7PZ         0.00644   0.00513  -0.00486  -0.00034   0.00536
  41        8D 0       -0.02529  -0.01996   0.01320   0.00086  -0.00883
  42        8D+1        0.00068   0.01695   0.00452  -0.00021   0.00689
  43        8D-1       -0.01723   0.00171  -0.00822   0.00167   0.01048
  44        8D+2       -0.00331  -0.00451  -0.01071  -0.01011  -0.00727
  45        8D-2        0.00609  -0.01262   0.02074   0.00303   0.00291
  46        9D 0       -0.00412   0.00988   0.00933  -0.00079   0.00271
  47        9D+1       -0.00701  -0.00840   0.00121  -0.00383   0.00225
  48        9D-1        0.00965   0.00863  -0.00597  -0.00857  -0.00188
  49        9D+2       -0.00717   0.01131   0.00170   0.01814  -0.00215
  50        9D-2       -0.00342   0.00871  -0.01017  -0.00488   0.00261
  51 3   O  1S         -0.36051  -0.01951   0.27331  -0.16177   0.21084
  52        2S         -0.05115   0.11897  -0.19532   0.03320  -0.10407
  53        3S         -0.06720   0.13971  -0.25549   0.05825  -0.14523
  54        4S         -0.04567   0.01099  -0.07254   0.04501  -0.06423
  55        5PX        -0.04260   0.05439   0.03340   0.08395  -0.12017
  56        5PY         0.20237  -0.05846   0.07594  -0.04765  -0.02957
  57        5PZ        -0.16163   0.07428  -0.03580  -0.03605  -0.03743
  58        6PX        -0.03991   0.02943   0.01824   0.05626  -0.08732
  59        6PY         0.14384  -0.04990   0.05474  -0.02802  -0.02286
  60        6PZ        -0.08717   0.04812  -0.00830  -0.02350  -0.00856
  61        7PX        -0.01838   0.00089   0.00309   0.01149  -0.01969
  62        7PY         0.02980  -0.01695   0.01327  -0.00774  -0.00697
  63        7PZ        -0.00500   0.00659   0.00432  -0.00965   0.00632
  64        8D 0        0.00667  -0.00356  -0.00227   0.00238  -0.00033
  65        8D+1       -0.00157  -0.00228   0.00161  -0.00465   0.00435
  66        8D-1       -0.00561  -0.00043  -0.00440   0.00219  -0.00052
  67        8D+2        0.00173   0.00101   0.00096   0.00118  -0.00163
  68        8D-2        0.00209  -0.00090   0.00155  -0.00123   0.00097
  69        9D 0        0.00516  -0.00492  -0.00111  -0.00077  -0.00106
  70        9D+1        0.00208  -0.00068   0.00251  -0.00517   0.00801
  71        9D-1       -0.01526   0.00423  -0.00655  -0.00329   0.00228
  72        9D+2        0.00195  -0.00073   0.00134   0.00205  -0.00234
  73        9D-2        0.00519  -0.00305   0.00101  -0.00074  -0.00005
  74 4   O  1S          0.15939  -0.23157  -0.13742   0.29134   0.17192
  75        2S         -0.05237  -0.00547  -0.04070  -0.04295  -0.14059
  76        3S         -0.05434   0.01645  -0.03701  -0.03381  -0.19127
  77        4S          0.00380   0.00651  -0.00061   0.04918  -0.06592
  78        5PX         0.01164   0.09469  -0.06728  -0.07584   0.17548
  79        5PY        -0.17827   0.01287   0.04162  -0.07926   0.01701
  80        5PZ         0.03447  -0.22686  -0.09785  -0.03597  -0.02113
  81        6PX         0.00883   0.06976  -0.04234  -0.03940   0.11486
  82        6PY        -0.10226   0.02816   0.02703  -0.02611  -0.00121
  83        6PZ         0.03437  -0.14229  -0.06166  -0.01144  -0.02547
  84        7PX         0.00109   0.01096  -0.00612  -0.00339   0.02115
  85        7PY        -0.00812   0.00588   0.00755   0.00303  -0.00993
  86        7PZ         0.01102  -0.02486  -0.00891   0.00081  -0.00836
  87        8D 0        0.00395  -0.00483  -0.00203   0.00122  -0.00115
  88        8D+1       -0.00017  -0.00032  -0.00273  -0.00135   0.00164
  89        8D-1       -0.00403  -0.00734  -0.00405  -0.00241  -0.00171
  90        8D+2        0.00762   0.00126  -0.00117   0.00183   0.00202
  91        8D-2       -0.00247   0.00364  -0.00281  -0.00274   0.00436
  92        9D 0        0.00516  -0.00997  -0.00378   0.00078  -0.00514
  93        9D+1        0.00324   0.00022  -0.00298   0.00193   0.00178
[...]
     25 -0.506248D-02  0.683148D-02 -0.157559D-01  0.177806D-01 -0.540954D-03
     26 -0.819244D-03  0.868425D-03  0.187053D-01 -0.298012D-03 -0.193376D-01
     27  0.250667D-02  0.389012D-02  0.149531D-02 -0.178757D-01  0.171993D-01
     28 -0.525644D-02  0.286223D-02 -0.170926D-01  0.176128D-01  0.605373D-03
     29 -0.101320D-02 -0.310082D-02  0.173686D-01 -0.465752D-03 -0.181913D-01
     30  0.231271D-02 -0.791312D-04  0.158601D-03 -0.180434D-01  0.183457D-01
     31  0.944703D-02 -0.149601D-02  0.326709D-03  0.290779D-02 -0.194811D-02
     32  0.587076D-03  0.287148D-02 -0.427457D-02 -0.507325D-02 -0.284277D-02
     33 -0.860088D-02 -0.511420D-02  0.481980D-02  0.354444D-02  0.570797D-02
               21            22            23            24            25 
     21  0.153582D+00
     22  0.503688D-02  0.297298D-01
     23  0.429205D-02  0.708257D-02  0.316225D-01
     24  0.502246D-02  0.674309D-02  0.759228D-02  0.312571D-01
     25  0.604081D-02  0.775131D-02 -0.166529D-01 -0.162209D-01  0.313206D-01
     26  0.529598D-02 -0.148959D-01  0.788705D-02 -0.153717D-01  0.691636D-02
     27  0.602639D-02 -0.152354D-01 -0.161432D-01  0.829314D-02  0.734839D-02
     28 -0.997791D-02  0.869040D-02 -0.147058D-01 -0.153258D-01  0.988531D-02
     29 -0.107227D-01 -0.139568D-01  0.983409D-02 -0.144766D-01 -0.145189D-01
     30 -0.999233D-02 -0.142963D-01 -0.141961D-01  0.918820D-02 -0.140869D-01
     31  0.990913D-03  0.157115D-02  0.219004D-02  0.440163D-02  0.156144D-02
     32 -0.887756D-03  0.305391D-02  0.362770D-02  0.222010D-02 -0.407132D-02
     33 -0.295135D-02 -0.408560D-02 -0.387747D-02 -0.493894D-02  0.384372D-02
               26            27            28            29            30 
     26  0.296993D-01
     27  0.644062D-02  0.308769D-01
     28 -0.135109D-01 -0.141309D-01  0.295531D-01
     29  0.927204D-02 -0.150387D-01  0.615684D-02  0.299478D-01
     30 -0.139867D-01  0.939766D-02  0.553688D-02  0.563707D-02  0.290214D-01
     31  0.218034D-02  0.439193D-02 -0.557463D-02 -0.495573D-02 -0.274414D-02
     32 -0.349752D-02 -0.490512D-02  0.115354D-02  0.172734D-02  0.319738D-03
     33  0.405184D-02  0.299038D-02  0.792664D-03  0.100079D-02 -0.606774D-04
               31            32            33 
     31  0.213498D-01
     32 -0.979810D-02  0.484740D-01
     33 -0.846125D-02 -0.355646D-01  0.506787D-01
 Leave Link  716 at Sat Aug  1 16:08:56 2020, MaxMem=   524288000 cpu:               0.2 elap:               0.0
 (Enter /home/ubuntu/g16/l103.exe)

 GradGradGradGradGradGradGradGradGradGradGradGradGradGradGradGradGradGrad
 Berny optimization.
 Red2BG is reusing G-inverse.
 Internal  Forces:  Max     0.000062002 RMS     0.000018121
 Search for a local minimum.
 Step number   1 out of a maximum of    2
 All quantities printed in internal units (Hartrees-Bohrs-Radians)
 Second derivative matrix not updated -- analytic derivatives used.
 ITU=  0
     Eigenvalues ---    0.00188   0.00374   0.08647   0.08703   0.09471
     Eigenvalues ---    0.09517   0.11718   0.13450   0.15366   0.15503
     Eigenvalues ---    0.19845   0.20150   0.23105   0.27416   0.34140
     Eigenvalues ---    0.35787   0.36618   0.50080   0.52117   0.57857
     Eigenvalues ---    0.60620
 Angle between quadratic step and forces=  75.72 degrees.
 Linear search not attempted -- first point.
 Iteration  1 RMS(Cart)=  0.00032594 RMS(Int)=  0.00000012
 Iteration  2 RMS(Cart)=  0.00000011 RMS(Int)=  0.00000000
 ITry= 1 IFail=0 DXMaxC= 7.04D-04 DCOld= 1.00D+10 DXMaxT= 3.00D-01 DXLimC= 3.00D+00 Rises=F
 Variable       Old X    -DE/DX   Delta X   Delta X   Delta X     New X
                                 (Linear)    (Quad)   (Total)
    R1        3.59378  -0.00001   0.00000  -0.00011  -0.00011   3.59367
    R2        2.78666  -0.00006   0.00000  -0.00012  -0.00012   2.78654
    R3        2.76985  -0.00002   0.00000  -0.00005  -0.00005   2.76980
    R4        3.12073  -0.00005   0.00000  -0.00025  -0.00025   3.12048
    R5        2.51723   0.00000   0.00000   0.00000   0.00000   2.51723
    R6        2.52926   0.00002   0.00000   0.00007   0.00007   2.52933
    R7        2.52037   0.00004   0.00000   0.00011   0.00011   2.52047
    R8        1.83961  -0.00001   0.00000  -0.00002  -0.00002   1.83959
    A1        1.87366  -0.00002   0.00000  -0.00019  -0.00019   1.87347
    A2        1.87434   0.00001   0.00000   0.00005   0.00005   1.87438
    A3        1.72374   0.00002   0.00000   0.00017   0.00017   1.72391
    A4        2.16924   0.00001   0.00000   0.00006   0.00006   2.16929
    A5        1.90013   0.00000   0.00000   0.00012   0.00012   1.90025
    A6        1.87124  -0.00001   0.00000  -0.00017  -0.00017   1.87107
    A7        1.91747   0.00001   0.00000   0.00013   0.00013   1.91760
    A8        1.90485   0.00001   0.00000   0.00005   0.00005   1.90489
    A9        1.88994  -0.00001   0.00000  -0.00010  -0.00010   1.88985
   A10        1.91616  -0.00001   0.00000  -0.00005  -0.00005   1.91611
   A11        1.91978  -0.00000   0.00000  -0.00003  -0.00003   1.91975
   A12        1.91539   0.00000   0.00000  -0.00001  -0.00001   1.91539
   A13        1.87592   0.00002   0.00000   0.00026   0.00026   1.87619
    D1       -3.04159  -0.00000   0.00000  -0.00051  -0.00051  -3.04210
    D2       -0.93979  -0.00000   0.00000  -0.00046  -0.00046  -0.94025
    D3        1.14457  -0.00000   0.00000  -0.00049  -0.00049   1.14407
    D4        0.87222  -0.00000   0.00000  -0.00047  -0.00047   0.87175
    D5        2.97402  -0.00000   0.00000  -0.00042  -0.00042   2.97359
    D6       -1.22481  -0.00000   0.00000  -0.00046  -0.00046  -1.22527
    D7       -1.06906   0.00000   0.00000  -0.00036  -0.00036  -1.06943
    D8        1.03273   0.00000   0.00000  -0.00032  -0.00032   1.03242
    D9        3.11709   0.00001   0.00000  -0.00035  -0.00035   3.11674
   D10       -1.68851   0.00001   0.00000   0.00094   0.00094  -1.68758
   D11        0.26302  -0.00000   0.00000   0.00084   0.00084   0.26386
   D12        2.65092  -0.00000   0.00000   0.00087   0.00087   2.65179
         Item               Value     Threshold  Converged?
 Maximum Force            0.000062     0.000450     YES
 RMS     Force            0.000018     0.000300     YES
 Maximum Displacement     0.000704     0.001800     YES
 RMS     Displacement     0.000326     0.001200     YES
 Predicted change in Energy=-2.675526D-08
 Optimization completed.
    -- Stationary point found.
                           ----------------------------
                           !   Optimized Parameters   !
                           ! (Angstroms and Degrees)  !
 --------------------------                            --------------------------
 ! Name  Definition              Value          Derivative Info.                !
 --------------------------------------------------------------------------------
 ! R1    R(1,2)                  1.9017         -DE/DX =    0.0                 !
 ! R2    R(1,3)                  1.4746         -DE/DX =   -0.0001              !
 ! R3    R(1,4)                  1.4657         -DE/DX =    0.0                 !
 ! R4    R(1,8)                  1.6514         -DE/DX =   -0.0001              !
 ! R5    R(2,5)                  1.3321         -DE/DX =    0.0                 !
 ! R6    R(2,6)                  1.3384         -DE/DX =    0.0                 !
 ! R7    R(2,7)                  1.3337         -DE/DX =    0.0                 !
 ! R8    R(8,9)                  0.9735         -DE/DX =    0.0                 !
 ! A1    A(2,1,3)              107.353          -DE/DX =    0.0                 !
 ! A2    A(2,1,4)              107.3917         -DE/DX =    0.0                 !
 ! A3    A(2,1,8)               98.7628         -DE/DX =    0.0                 !
 ! A4    A(3,1,4)              124.288          -DE/DX =    0.0                 !
 ! A5    A(3,1,8)              108.8697         -DE/DX =    0.0                 !
 ! A6    A(4,1,8)              107.2144         -DE/DX =    0.0                 !
 ! A7    A(1,2,5)              109.863          -DE/DX =    0.0                 !
 ! A8    A(1,2,6)              109.1396         -DE/DX =    0.0                 !
 ! A9    A(1,2,7)              108.2858         -DE/DX =    0.0                 !
 ! A10   A(5,2,6)              109.788          -DE/DX =    0.0                 !
 ! A11   A(5,2,7)              109.995          -DE/DX =    0.0                 !
 ! A12   A(6,2,7)              109.744          -DE/DX =    0.0                 !
 ! A13   A(1,8,9)              107.4826         -DE/DX =    0.0                 !
 ! D1    D(3,1,2,5)           -174.2701         -DE/DX =    0.0                 !
 ! D2    D(3,1,2,6)            -53.8461         -DE/DX =    0.0                 !
 ! D3    D(3,1,2,7)             65.5789         -DE/DX =    0.0                 !
 ! D4    D(4,1,2,5)             49.9745         -DE/DX =    0.0                 !
 ! D5    D(4,1,2,6)            170.3985         -DE/DX =    0.0                 !
 ! D6    D(4,1,2,7)            -70.1765         -DE/DX =    0.0                 !
 ! D7    D(8,1,2,5)            -61.2529         -DE/DX =    0.0                 !
 ! D8    D(8,1,2,6)             59.1712         -DE/DX =    0.0                 !
 ! D9    D(8,1,2,7)            178.5961         -DE/DX =    0.0                 !
 ! D10   D(2,1,8,9)            -96.7446         -DE/DX =    0.0                 !
 ! D11   D(3,1,8,9)             15.0701         -DE/DX =    0.0                 !
 ! D12   D(4,1,8,9)            151.8864         -DE/DX =    0.0                 !
 --------------------------------------------------------------------------------
 GradGradGradGradGradGradGradGradGradGradGradGradGradGradGradGradGradGrad

 Leave Link  103 at Sat Aug  1 16:08:56 2020, MaxMem=   524288000 cpu:               0.1 elap:               0.0
 (Enter /home/ubuntu/g16/l9999.exe)

 ----------------------------------------------------------------------

 Electric dipole moment (input orientation):
 (Debye = 10**-18 statcoulomb cm , SI units = C m)
                  (au)            (Debye)         (10**-30 SI)
   Tot        0.103178D+01      0.262253D+01      0.874782D+01
   x          0.321559D+00      0.817323D+00      0.272629D+01
   y          0.849844D+00      0.216009D+01      0.720528D+01
   z         -0.488816D+00     -0.124245D+01     -0.414435D+01

 Dipole polarizability, Alpha (input orientation).
 (esu units = cm**3 , SI units = C**2 m**2 J**-1)
 Alpha(0;0):
               (au)            (10**-24 esu)      (10**-40 SI)
   iso        0.502912D+02      0.745239D+01      0.829190D+01
   aniso      0.353040D+01      0.523151D+00      0.582084D+00
   xx         0.515664D+02      0.764135D+01      0.850215D+01
   yx        -0.258255D+00     -0.382694D-01     -0.425804D-01
   yy         0.507571D+02      0.752143D+01      0.836871D+01
   zx         0.127514D+01      0.188956D+00      0.210242D+00
   zy        -0.157012D+00     -0.232667D-01     -0.258877D-01
   zz         0.485501D+02      0.719439D+01      0.800483D+01

 ----------------------------------------------------------------------

 Dipole orientation:
    16          8.77326640          0.92815575          3.91027779
     6         12.07255419          0.23266032          5.15377021
     8          7.30957366         -1.43786463          4.06841349
     8          9.05841495          2.43542538          1.60400898
     9         13.40825060          2.36293958          5.27316051
     9         11.89089735         -0.79436616          7.45797864
     9         13.18350691         -1.39415647          3.58167088
     8          7.81340125          2.86133846          6.16425802
     1          6.83743399          1.86767510          7.36604298

 Electric dipole moment (dipole orientation):
 (Debye = 10**-18 statcoulomb cm , SI units = C m)
                  (au)            (Debye)         (10**-30 SI)
   Tot        0.103178D+01      0.262253D+01      0.874782D+01
   x          0.000000D+00      0.000000D+00      0.000000D+00
   y          0.000000D+00      0.000000D+00      0.000000D+00
   z          0.103178D+01      0.262253D+01      0.874782D+01

 Dipole polarizability, Alpha (dipole orientation).
 (esu units = cm**3 , SI units = C**2 m**2 J**-1)
 Alpha(0;0):
               (au)            (10**-24 esu)      (10**-40 SI)
   iso        0.502912D+02      0.745239D+01      0.829190D+01
   aniso      0.353040D+01      0.523151D+00      0.582084D+00
   xx         0.520924D+02      0.771929D+01      0.858887D+01
   yx        -0.717500D-01     -0.106323D-01     -0.118300D-01
   yy         0.488275D+02      0.723549D+01      0.805056D+01
   zx        -0.116929D+00     -0.173271D-01     -0.192790D-01
   zy        -0.117705D+01     -0.174421D+00     -0.194070D+00
   zz         0.499538D+02      0.740238D+01      0.823626D+01

 ----------------------------------------------------------------------
 1\1\GINC-LC06-1-2\Freq\UB3LYP\Aug-CC-pVDZ\C1H1F3O3S1\UBUNTU\01-Aug-202
 0\0\\#P Geom=AllCheck Guess=TCheck SCRF=Check GenChk UB3LYP/Aug-CC-pVD
 Z Freq\\HOTf_UB3LYP-aug-cc-pVDZ\\0,1\S,5.0670744019,0.6306438096,0.062
 0238775\C,6.8388899108,1.0671548929,0.5975391777\O,4.1515677741,1.5101
 635455,0.8122516746\O,4.9666012447,-0.8313031649,0.03027119\F,7.715168
 6876,0.3877190808,-0.1406228826\F,7.0344443223,2.3815180771,0.43755512
 79\F,6.9788178719,0.7441158075,1.8839589053\O,5.1425236011,1.149473590
 9,-1.5039616232\H,4.7667121856,2.0470143606,-1.5331054471\\Version=ES6
 4L-G16RevA.03\State=1-A\HF=-962.1073886\S2=0.\S2-1=0.\S2A=0.\RMSD=7.24
 2e-09\RMSF=2.241e-05\ZeroPoint=0.0374487\Thermal=0.0454532\Dipole=0.32
 15595,0.849844,-0.4888159\DipoleDeriv=1.6214804,-0.0831538,-0.1284318,
 -0.1103324,1.9842585,-0.0947592,-0.0629128,-0.1196533,1.9524765,1.6231
 078,0.0089091,0.0817142,0.0272391,1.4410918,0.0136646,0.0823123,0.0022
 165,1.5156691,-0.8270696,0.1508395,0.1613851,0.2459763,-0.6704503,-0.1
 671238,0.1597113,-0.0821674,-0.6378097,-0.5704234,-0.0581527,-0.030314
 5,-0.1525702,-0.9885748,-0.0186003,-0.0232918,-0.0579254,-0.4605203,-0
 .8140427,0.2176735,0.1924624,0.2161581,-0.3647883,-0.1535824,0.2173388
 ,-0.1601592,-0.3947425,-0.4453714,-0.2316204,-0.0499258,-0.2512299,-0.
 8954923,0.0215874,-0.0427141,0.0381611,-0.2524893,-0.4080589,0.006053,
 -0.2182893,0.0003405,-0.2521741,0.120075,-0.2205315,0.1284062,-0.89430
 09,-0.488038,-0.0077701,-0.0694906,0.0286337,-0.5503384,0.4057733,-0.1
 405743,0.2934716,-1.1190672,0.3084159,-0.0027781,0.0608903,-0.0042153,
 0.2964679,-0.1270347,0.0306621,-0.0423501,0.2907843\Polar=51.5663821,-
 0.2582547,50.757093,1.2751387,-0.1570117,48.5501281\Quadrupole=-0.5556
 205,-0.6407352,1.1963557,-1.5106669,2.5478508,-3.0331481\PG=C01 [X(C1H
 1F3O3S1)]\NImag=0\\0.54878328,-0.12223500,0.97374071,-0.11611016,0.107
 90030,0.51705927,-0.13247932,-0.02582909,-0.03929955,0.45280922,-0.029
 07705,-0.02507606,-0.01104757,-0.01908641,0.49932336,-0.03177408,-0.00
 811879,-0.02815178,-0.02027734,-0.00265807,0.50269927,-0.27021327,0.17
 517763,0.14972771,0.01269473,0.02041155,0.02219294,0.25339523,0.174680
 50,-0.24039939,-0.13764491,-0.00601305,-0.00583894,-0.00664343,-0.1917
 6975,0.23030308,0.14708627,-0.13882905,-0.19189424,-0.00321056,-0.0039
 2766,-0.00315762,-0.17248712,0.15661299,0.18959731,-0.08455991,-0.0434
 2785,-0.00190702,0.01507075,-0.01177471,0.00526020,0.01597146,0.021741
 47,0.00433757,0.05182272,-0.04391520,-0.57219384,-0.01743950,0.0239143
 3,-0.01339043,0.00787673,-0.00453694,-0.00635467,0.00385507,0.04184835
 ,0.59995488,-0.00276015,-0.02239666,-0.06944040,0.00471392,-0.00330705
 ,0.00349579,0.00207540,-0.01591984,0.01168780,-0.00168745,0.01000169,0
 .05074042,-0.01400892,0.02499195,0.02961707,-0.19000584,0.07559931,0.0
 8181222,-0.01339633,0.00042166,-0.00120353,0.00004188,-0.00704724,-0.0
 0378948,0.20027485,0.00221837,-0.00512641,-0.00690448,0.07229895,-0.11
 602708,-0.05151494,0.00134823,0.00152386,0.00097040,-0.00056987,0.0049
 5670,0.00166386,-0.11314454,0.16038261,0.00245069,-0.00588358,-0.00496
 791,0.07587564,-0.05047258,-0.12278459,0.00093951,0.00088661,0.0014872
 0,-0.00083421,0.00216177,0.00157109,-0.12294893,0.09243892,0.17451141,
 0.00440451,-0.02673188,0.00637477,-0.08474379,-0.05397060,0.00381735,-
 0.00220465,0.00234997,-0.00037780,-0.00746785,-0.00641662,-0.00233424,
 0.00913916,0.03705028,0.00547047,0.06819995,0.00743322,-0.03296007,0.0
 0964094,-0.04721780,-0.26009130,0.01694734,-0.00499461,0.00800837,0.00
 067173,-0.00872072,-0.00341982,-0.00252403,0.01868025,-0.05946346,-0.0
 2008356,0.04071373,0.37594848,-0.00001534,-0.00337900,0.00154250,0.002
 03110,0.01313893,-0.06930088,-0.00138506,0.00091120,0.00102677,-0.0013
 3527,-0.00142276,0.00014349,0.00218061,-0.02591202,0.00855511,-0.00913
 158,-0.03735082,0.07758306,0.00689759,0.00813340,-0.02228677,-0.082673
 86,0.00980279,-0.04942031,-0.00244922,0.00017823,0.00192040,-0.0024081
 2,-0.00436678,0.00119481,0.00799219,0.00122315,0.03943370,0.01375658,-
 0.00372433,0.00772773,0.06458677,-0.00053317,0.00144376,0.00117739,0.0
 0728836,-0.07773147,0.04088073,-0.00086787,0.00079994,0.00008830,0.000
 93115,0.00299053,-0.00032197,0.00093189,0.01311940,-0.01887185,0.00445
 689,-0.03352336,0.05568279,-0.01185330,0.09232409,0.00849905,0.0112901
 2,-0.02805319,-0.04182742,0.04337860,-0.26834222,-0.00663463,0.0017217
 8,0.00613631,-0.00364656,-0.00683277,0.00278109,0.02166434,-0.01160044
 ,-0.06243824,-0.00002081,0.03993747,-0.02158441,0.02836145,-0.07753781
 ,0.37630631,-0.06200052,0.01409013,-0.00300114,0.00898839,0.00435846,-
 0.00955709,0.00963375,-0.00323928,0.02264065,0.01093982,0.00452268,-0.
 00160801,-0.00005265,0.00006333,-0.00020088,-0.00097762,-0.00028205,-0
 .00097810,-0.00536084,0.00009193,-0.00661100,0.11704830,0.00887814,-0.
 08400743,0.04785165,-0.00821056,-0.00426818,0.00429885,0.00429057,0.01
 169590,-0.01384781,-0.00024405,-0.01532450,0.03123455,0.00051814,0.000
 79493,-0.00016378,0.00326904,0.00707577,-0.00175789,0.00208276,0.00091
 171,0.00091200,-0.19132476,0.49771135,0.01019394,0.01804685,-0.1892310
 4,0.02145670,0.01353500,-0.01170062,0.00465823,0.00505731,-0.01869038,
 -0.00166666,-0.00081955,0.00419845,-0.00825741,0.00118655,0.00392477,-
 0.00326496,-0.00556497,0.00177775,-0.00629688,-0.00094167,-0.00441111,
 -0.01206627,-0.05463035,0.24863156,0.00317656,-0.00416927,-0.00311490,
 0.00033972,0.00373664,-0.00205389,-0.00343170,0.00165025,0.00129413,0.
 00058925,-0.00400258,0.00419519,0.00001566,-0.00048791,-0.00018600,-0.
 00010629,-0.00188769,0.00090592,-0.00034110,-0.00044588,0.00021557,-0.
 07821863,0.18074074,-0.00475669,0.07797654,0.00255019,-0.01542127,0.00
 646618,0.00285525,0.00310010,-0.00106841,0.00094121,0.00026185,-0.0055
 9398,0.00021623,0.00278115,0.00156946,-0.00095141,-0.00016055,-0.00001
 194,-0.00072081,-0.00157460,0.00008958,-0.00147592,-0.00033461,-0.0012
 6894,0.17171957,-0.41458955,0.02413083,-0.17513430,0.42593747,-0.01757
 022,0.04136982,-0.00686321,0.00053751,0.00136041,-0.00275734,0.0009130
 2,-0.00498171,0.00380686,0.00147940,0.00261932,-0.00517772,0.00092510,
 -0.00032785,0.00014117,-0.00053321,-0.00167410,0.00025661,-0.00063411,
 -0.00015591,-0.00039454,0.01138184,-0.01389722,-0.03449937,0.00350067,
 -0.02431278,0.04548755\\0.00002601,-0.00002899,0.00001022,0.00002785,0
 .00000213,0.00003115,-0.00004497,0.00003603,0.00002511,-0.00000242,-0.
 00002396,0.00000933,-0.00000777,-0.00000122,-0.00000083,-0.00000840,-0
 .00001892,0.00000519,0.00000002,0.00001289,-0.00003406,0.00001583,0.00
 001525,-0.00005546,-0.00000616,0.00000680,0.00000933\\\@


 THE ... SCIENTISTS WERE WRONG ... THE MOST PERSISTENT PRINCIPLES 
 OF THE UNIVERSE WERE ACCIDENT AND ERROR.

                          -- FRANK HERBERT IN DUNE
 Job cpu time:       0 days  0 hours 33 minutes 19.9 seconds.
 Elapsed time:       0 days  0 hours  4 minutes 46.9 seconds.
 File lengths (MBytes):  RWF=     89 Int=      0 D2E=      0 Chk=      5 Scr=      1
 Normal termination of Gaussian 16 at Sat Aug  1 16:08:56 2020.
