 Entering Gaussian System, Link 0=/home/ubuntu/g16/g16
 Input=HSO4-_UB3LYP-aug-cc-pVDZ-Opt.gjf
 Output=HSO4-_UB3LYP-aug-cc-pVDZ-Opt.log
 Initial command:
 /home/ubuntu/g16/l1.exe "/home/ubuntu/g16/Gau-10548.inp" -scrdir="/home/ubuntu/g16/"
 Entering Link 1 = /home/ubuntu/g16/l1.exe PID=     10550.
  
 Copyright (c) 1988,1990,1992,1993,1995,1998,2003,2009,2016,
            Gaussian, Inc.  All Rights Reserved.
  
 This is part of the Gaussian(R) 16 program.  It is based on
 the Gaussian(R) 09 system (copyright 2009, Gaussian, Inc.),
 the Gaussian(R) 03 system (copyright 2003, Gaussian, Inc.),
 the Gaussian(R) 98 system (copyright 1998, Gaussian, Inc.),
 the Gaussian(R) 94 system (copyright 1995, Gaussian, Inc.),
 the Gaussian 92(TM) system (copyright 1992, Gaussian, Inc.),
 the Gaussian 90(TM) system (copyright 1990, Gaussian, Inc.),
 the Gaussian 88(TM) system (copyright 1988, Gaussian, Inc.),
 the Gaussian 86(TM) system (copyright 1986, Carnegie Mellon
 University), and the Gaussian 82(TM) system (copyright 1983,
 Carnegie Mellon University). Gaussian is a federally registered
 trademark of Gaussian, Inc.
  
 This software contains proprietary and confidential information,
 including trade secrets, belonging to Gaussian, Inc.
  
 This software is provided under written license and may be
 used, copied, transmitted, or stored only in accord with that
 written license.
  
 The following legend is applicable only to US Government
 contracts under FAR:
  
                    RESTRICTED RIGHTS LEGEND
  
 Use, reproduction and disclosure by the US Government is
 subject to restrictions as set forth in subparagraphs (a)
 and (c) of the Commercial Computer Software - Restricted
 Rights clause in FAR 52.227-19.
  
 Gaussian, Inc.
 340 Quinnipiac St., Bldg. 40, Wallingford CT 06492
  
  
 ---------------------------------------------------------------
 Warning -- This program may not be used in any manner that
 competes with the business of Gaussian, Inc. or will provide
 assistance to any competitor of Gaussian, Inc.  The licensee
 of this program is prohibited from giving any competitor of
 Gaussian, Inc. access to this program.  By using this program,
 the user acknowledges that Gaussian, Inc. is engaged in the
 business of creating and licensing software in the field of
 computational chemistry and represents and warrants to the
 licensee that it is not a competitor of Gaussian, Inc. and that
 it will not use this program in any manner prohibited above.
 ---------------------------------------------------------------
  

 Cite this work as:
 Gaussian 16, Revision A.03,
 M. J. Frisch, G. W. Trucks, H. B. Schlegel, G. E. Scuseria, 
 M. A. Robb, J. R. Cheeseman, G. Scalmani, V. Barone, 
 G. A. Petersson, H. Nakatsuji, X. Li, M. Caricato, A. V. Marenich, 
 J. Bloino, B. G. Janesko, R. Gomperts, B. Mennucci, H. P. Hratchian, 
 J. V. Ortiz, A. F. Izmaylov, J. L. Sonnenberg, D. Williams-Young, 
 F. Ding, F. Lipparini, F. Egidi, J. Goings, B. Peng, A. Petrone, 
 T. Henderson, D. Ranasinghe, V. G. Zakrzewski, J. Gao, N. Rega, 
 G. Zheng, W. Liang, M. Hada, M. Ehara, K. Toyota, R. Fukuda, 
 J. Hasegawa, M. Ishida, T. Nakajima, Y. Honda, O. Kitao, H. Nakai, 
 T. Vreven, K. Throssell, J. A. Montgomery, Jr., J. E. Peralta, 
 F. Ogliaro, M. J. Bearpark, J. J. Heyd, E. N. Brothers, K. N. Kudin, 
 V. N. Staroverov, T. A. Keith, R. Kobayashi, J. Normand, 
 K. Raghavachari, A. P. Rendell, J. C. Burant, S. S. Iyengar, 
 J. Tomasi, M. Cossi, J. M. Millam, M. Klene, C. Adamo, R. Cammi, 
 J. W. Ochterski, R. L. Martin, K. Morokuma, O. Farkas, 
 J. B. Foresman, and D. J. Fox, Gaussian, Inc., Wallingford CT, 2016.
 
 ******************************************
 Gaussian 16:  ES64L-G16RevA.03 25-Dec-2016
                 2-Aug-2020 
 ******************************************
 %chk=HSO4-_UB3LYP-aug-cc-pVDZ-Opt.chk
 %mem=500MW
 %nproc=7
 Will use up to    7 processors via shared memory.
 ----------------------------------------------------------------------
 #p opt=(maxcycles=777) freq ub3lyp/aug-cc-pVDZ pop=(Bonding,AllOrbital
 s,mk,no,nboread)
 ----------------------------------------------------------------------
 1/6=777,18=20,19=15,26=3,38=1/1,3;
 2/9=110,12=2,17=6,18=5,40=1/2;
 3/5=16,7=10,11=2,25=1,30=1,71=1,74=-5,116=2/1,2,3;
 4//1;
 5/5=2,38=5/2;
 6/7=2,8=2,9=2,10=2,15=8,20=1,22=-1,27=20,28=1,31=1,40=2,96=-1/1,2,7;
 7//1,2,3,16;
 1/6=777,18=20,19=15,26=3/3(2);
 2/9=110/2;
 99//99;
 2/9=110/2;
 3/5=16,7=10,11=2,25=1,30=1,71=1,74=-5,116=2/1,2,3;
 4/5=5,16=3,69=1/1;
 5/5=2,38=5/2;
 7//1,2,3,16;
 1/6=777,18=20,19=15,26=3/3(-5);
 2/9=110/2;
 6/7=2,8=2,9=2,10=2,15=8,19=2,20=1,22=-1,27=20,28=1,31=1,40=2,96=-1/1,2,7;
 99/9=1/99;
 Leave Link    1 at Sun Aug  2 03:09:38 2020, MaxMem=   524288000 cpu:               0.3 elap:               0.0
 (Enter /home/ubuntu/g16/l101.exe)
 ------------------------
 HSO4-_UB3LYP-aug-cc-pVDZ
 ------------------------
 Symbolic Z-matrix:
 Charge = -1 Multiplicity = 1
 S                     5.24265   0.66016   0.1222 
 O                     4.16791   1.51241   0.75235 
 O                     4.94283  -0.8031    0.02941 
 O                     5.17697   1.17267  -1.53432 
 H                     4.7094    2.01735  -1.47017 
 O                     6.63745   0.99101   0.56303 
 
 ITRead=  0  0  0  0  0  0
 MicOpt= -1 -1 -1 -1 -1 -1
 NAtoms=      6 NQM=        6 NQMF=       0 NMMI=      0 NMMIF=      0
                NMic=       0 NMicF=      0.
                    Isotopes and Nuclear Properties:
 (Nuclear quadrupole moments (NQMom) in fm**2, nuclear magnetic moments (NMagM)
  in nuclear magnetons)

  Atom         1           2           3           4           5           6
 IAtWgt=          32          16          16          16           1          16
 AtmWgt=  31.9720718  15.9949146  15.9949146  15.9949146   1.0078250  15.9949146
 NucSpn=           0           0           0           0           1           0
 AtZEff=  -0.0000000  -0.0000000  -0.0000000  -0.0000000  -0.0000000  -0.0000000
 NQMom=    0.0000000   0.0000000   0.0000000   0.0000000   0.0000000   0.0000000
 NMagM=    0.0000000   0.0000000   0.0000000   0.0000000   2.7928460   0.0000000
 AtZNuc=  16.0000000   8.0000000   8.0000000   8.0000000   1.0000000   8.0000000
 Leave Link  101 at Sun Aug  2 03:09:38 2020, MaxMem=   524288000 cpu:               0.6 elap:               0.1
 (Enter /home/ubuntu/g16/l103.exe)

 GradGradGradGradGradGradGradGradGradGradGradGradGradGradGradGradGradGrad
 Berny optimization.
 Initialization pass.
                           ----------------------------
                           !    Initial Parameters    !
                           ! (Angstroms and Degrees)  !
 --------------------------                            --------------------------
 ! Name  Definition              Value          Derivative Info.                !
 --------------------------------------------------------------------------------
 ! R1    R(1,2)                  1.5095         estimate D2E/DX2                !
 ! R2    R(1,3)                  1.4965         estimate D2E/DX2                !
 ! R3    R(1,4)                  1.7352         estimate D2E/DX2                !
 ! R4    R(1,6)                  1.4998         estimate D2E/DX2                !
 ! R5    R(4,5)                  0.9676         estimate D2E/DX2                !
 ! A1    A(2,1,3)              115.8037         estimate D2E/DX2                !
 ! A2    A(2,1,4)              101.819          estimate D2E/DX2                !
 ! A3    A(2,1,6)              114.5139         estimate D2E/DX2                !
 ! A4    A(3,1,4)              102.8273         estimate D2E/DX2                !
 ! A5    A(3,1,6)              114.85           estimate D2E/DX2                !
 ! A6    A(4,1,6)              104.5158         estimate D2E/DX2                !
 ! A7    A(1,4,5)              102.2887         estimate D2E/DX2                !
 ! D1    D(2,1,4,5)             18.2589         estimate D2E/DX2                !
 ! D2    D(3,1,4,5)            138.507          estimate D2E/DX2                !
 ! D3    D(6,1,4,5)           -101.217          estimate D2E/DX2                !
 --------------------------------------------------------------------------------
 Trust Radius=3.00D-01 FncErr=1.00D-07 GrdErr=1.00D-06 EigMax=2.50D+02 EigMin=1.00D-04
 Number of steps in this run=    100 maximum allowed number of steps=    100.
 GradGradGradGradGradGradGradGradGradGradGradGradGradGradGradGradGradGrad

 Leave Link  103 at Sun Aug  2 03:09:39 2020, MaxMem=   524288000 cpu:               0.1 elap:               0.0
 (Enter /home/ubuntu/g16/l202.exe)
                          Input orientation:                          
 ---------------------------------------------------------------------
 Center     Atomic      Atomic             Coordinates (Angstroms)
 Number     Number       Type             X           Y           Z
 ---------------------------------------------------------------------
      1         16           0        5.242650    0.660160    0.122200
      2          8           0        4.167910    1.512410    0.752350
      3          8           0        4.942830   -0.803100    0.029410
      4          8           0        5.176970    1.172670   -1.534320
      5          1           0        4.709400    2.017350   -1.470170
      6          8           0        6.637450    0.991010    0.563030
 ---------------------------------------------------------------------
                    Distance matrix (angstroms):
                    1          2          3          4          5
     1  S    0.000000
     2  O    1.509465   0.000000
     3  O    1.496540   2.546513   0.000000
     4  O    1.735235   2.522397   2.530561   0.000000
     5  H    2.159158   2.342599   3.202837   0.967585   0.000000
     6  O    1.499753   2.531072   2.524939   2.562202   2.984066
                    6
     6  O    0.000000
 Stoichiometry    HO4S(1-)
 Framework group  C1[X(HO4S)]
 Deg. of freedom    12
 Full point group                 C1      NOp   1
 Largest Abelian subgroup         C1      NOp   1
 Largest concise Abelian subgroup C1      NOp   1
                         Standard orientation:                         
 ---------------------------------------------------------------------
 Center     Atomic      Atomic             Coordinates (Angstroms)
 Number     Number       Type             X           Y           Z
 ---------------------------------------------------------------------
      1         16           0        0.149415   -0.039586   -0.035635
      2          8           0       -0.268871   -1.069405   -1.056906
      3          8           0        0.856470    1.163721   -0.575780
      4          8           0       -1.381289    0.605810    0.465810
      5          1           0       -1.999354   -0.078360    0.172333
      6          8           0        0.744780   -0.611159    1.216605
 ---------------------------------------------------------------------
 Rotational constants (GHZ):           4.9442040           4.7068594           4.6427358
 Leave Link  202 at Sun Aug  2 03:09:39 2020, MaxMem=   524288000 cpu:               0.1 elap:               0.0
 (Enter /home/ubuntu/g16/l301.exe)
 Standard basis: Aug-CC-pVDZ (5D, 7F)
 Ernie: Thresh=  0.10000D-02 Tol=  0.10000D-05 Strict=F.
 Ernie:  18 primitive shells out of 160 were deleted.
 There are   138 symmetry adapted cartesian basis functions of A   symmetry.
 There are   128 symmetry adapted basis functions of A   symmetry.
   128 basis functions,   264 primitive gaussians,   138 cartesian basis functions
    25 alpha electrons       25 beta electrons
       nuclear repulsion energy       267.2984193253 Hartrees.
 IExCor=  402 DFT=T Ex+Corr=B3LYP ExCW=0 ScaHFX=  0.200000
 ScaDFX=  0.800000  0.720000  1.000000  0.810000 ScalE2=  1.000000  1.000000
 IRadAn=      5 IRanWt=     -1 IRanGd=            0 ICorTp=0 IEmpDi=  4
 NAtoms=    6 NActive=    6 NUniq=    6 SFac= 1.00D+00 NAtFMM=   60 NAOKFM=F Big=F
 Integral buffers will be    131072 words long.
 Raffenetti 2 integral format.
 Two-electron integral symmetry is turned on.
 Leave Link  301 at Sun Aug  2 03:09:39 2020, MaxMem=   524288000 cpu:               0.2 elap:               0.0
 (Enter /home/ubuntu/g16/l302.exe)
 NPDir=0 NMtPBC=     1 NCelOv=     1 NCel=       1 NClECP=     1 NCelD=      1
         NCelK=      1 NCelE2=     1 NClLst=     1 CellRange=     0.0.
 One-electron integrals computed using PRISM.
 One-electron integral symmetry used in STVInt
 NBasis=   128 RedAO= T EigKep=  7.35D-04  NBF=   128
 NBsUse=   128 1.00D-06 EigRej= -1.00D+00 NBFU=   128
 Precomputing XC quadrature grid using
 IXCGrd= 4 IRadAn=           5 IRanWt=          -1 IRanGd=           0 AccXCQ= 0.00D+00.
 Generated NRdTot=       0 NPtTot=           0 NUsed=           0 NTot=          32
 NSgBfM=   138   138   138   138   138 MxSgAt=     6 MxSgA2=     6.
 Leave Link  302 at Sun Aug  2 03:09:39 2020, MaxMem=   524288000 cpu:               1.2 elap:               0.2
 (Enter /home/ubuntu/g16/l303.exe)
 DipDrv:  MaxL=1.
 Leave Link  303 at Sun Aug  2 03:09:39 2020, MaxMem=   524288000 cpu:               0.2 elap:               0.0
 (Enter /home/ubuntu/g16/l401.exe)
 ExpMin= 2.97D-02 ExpMax= 1.11D+05 ExpMxC= 1.07D+03 IAcc=3 IRadAn=         5 AccDes= 0.00D+00
 Harris functional with IExCor=  402 and IRadAn=       5 diagonalized for initial guess.
 HarFok:  IExCor=  402 AccDes= 0.00D+00 IRadAn=         5 IDoV= 1 UseB2=F ITyADJ=14
 ICtDFT=  3500011 ScaDFX=  1.000000  1.000000  1.000000  1.000000
 FoFCou: FMM=F IPFlag=           0 FMFlag=      100000 FMFlg1=           0
         NFxFlg=           0 DoJE=T BraDBF=F KetDBF=T FulRan=T
         wScrn=  0.000000 ICntrl=       500 IOpCl=  0 I1Cent=   200000004 NGrid=           0
         NMat0=    1 NMatS0=      1 NMatT0=    0 NMatD0=    1 NMtDS0=    0 NMtDT0=    0
 Petite list used in FoFCou.
 Harris En= -699.977396407466    
 JPrj=0 DoOrth=F DoCkMO=F.
 Initial guess <Sx>= 0.0000 <Sy>= 0.0000 <Sz>= 0.0000 <S**2>=-0.0000 S=-0.0000
 Leave Link  401 at Sun Aug  2 03:09:39 2020, MaxMem=   524288000 cpu:               4.3 elap:               0.6
 (Enter /home/ubuntu/g16/l502.exe)
 Keep R1 and R2 ints in memory in canonical form, NReq=74909589.
 FoFCou: FMM=F IPFlag=           0 FMFlag=           0 FMFlg1=           0
         NFxFlg=           0 DoJE=F BraDBF=F KetDBF=F FulRan=T
         wScrn=  0.000000 ICntrl=       600 IOpCl=  0 I1Cent=           0 NGrid=           0
         NMat0=    1 NMatS0=   8256 NMatT0=    0 NMatD0=    1 NMtDS0=    0 NMtDT0=    0
 Symmetry not used in FoFCou.
 Two-electron integral symmetry not used.
 UHF open shell SCF:
 Using DIIS extrapolation, IDIIS=  1040.
 NGot=   524288000 LenX=   456077788 LenY=   456058303
 Requested convergence on RMS density matrix=1.00D-08 within 128 cycles.
 Requested convergence on MAX density matrix=1.00D-06.
 Requested convergence on             energy=1.00D-06.
 No special actions if energy rises.

 Cycle   1  Pass 1  IDiag  1:
 E= -699.421852351938    
 DIIS: error= 3.91D-02 at cycle   1 NSaved=   1.
 NSaved= 1 IEnMin= 1 EnMin= -699.421852351938     IErMin= 1 ErrMin= 3.91D-02
 ErrMax= 3.91D-02  0.00D+00 EMaxC= 1.00D-01 BMatC= 1.92D+00 BMatP= 1.92D+00
 IDIUse=3 WtCom= 6.09D-01 WtEn= 3.91D-01
 Coeff-Com:  0.100D+01
 Coeff-En:   0.100D+01
 Coeff:      0.100D+01
 Gap=     0.102 Goal=   None    Shift=    0.000
 Gap=     0.102 Goal=   None    Shift=    0.000
 GapD=    0.102 DampG=1.000 DampE=0.500 DampFc=0.5000 IDamp=-1.
 Damping current iteration by 5.00D-01
 RMSDP=1.13D-02 MaxDP=2.72D-01              OVMax= 2.58D-01

 Cycle   2  Pass 1  IDiag  1:
 E= -699.479350108306     Delta-E=       -0.057497756369 Rises=F Damp=T
 DIIS: error= 1.41D-02 at cycle   2 NSaved=   2.
 NSaved= 2 IEnMin= 2 EnMin= -699.479350108306     IErMin= 2 ErrMin= 1.41D-02
 ErrMax= 1.41D-02  0.00D+00 EMaxC= 1.00D-01 BMatC= 2.79D-01 BMatP= 1.92D+00
 IDIUse=3 WtCom= 8.59D-01 WtEn= 1.41D-01
 Coeff-Com:  0.265D+00 0.735D+00
 Coeff-En:   0.431D+00 0.569D+00
 Coeff:      0.288D+00 0.712D+00
 Gap=     0.192 Goal=   None    Shift=    0.000
 Gap=     0.192 Goal=   None    Shift=    0.000
 RMSDP=2.36D-03 MaxDP=5.73D-02 DE=-5.75D-02 OVMax= 1.81D-01

 Cycle   3  Pass 1  IDiag  1:
 E= -699.768306605740     Delta-E=       -0.288956497433 Rises=F Damp=F
 DIIS: error= 5.44D-03 at cycle   3 NSaved=   3.
 NSaved= 3 IEnMin= 3 EnMin= -699.768306605740     IErMin= 3 ErrMin= 5.44D-03
 ErrMax= 5.44D-03  0.00D+00 EMaxC= 1.00D-01 BMatC= 3.46D-02 BMatP= 2.79D-01
 IDIUse=3 WtCom= 9.46D-01 WtEn= 5.44D-02
 Coeff-Com:  0.139D+00 0.364D+00 0.497D+00
 Coeff-En:   0.000D+00 0.000D+00 0.100D+01
 Coeff:      0.131D+00 0.345D+00 0.524D+00
 Gap=     0.200 Goal=   None    Shift=    0.000
 Gap=     0.200 Goal=   None    Shift=    0.000
 RMSDP=8.09D-04 MaxDP=2.62D-02 DE=-2.89D-01 OVMax= 3.43D-02

 Cycle   4  Pass 1  IDiag  1:
 E= -699.772926340621     Delta-E=       -0.004619734881 Rises=F Damp=F
 DIIS: error= 3.68D-03 at cycle   4 NSaved=   4.
 NSaved= 4 IEnMin= 4 EnMin= -699.772926340621     IErMin= 4 ErrMin= 3.68D-03
 ErrMax= 3.68D-03  0.00D+00 EMaxC= 1.00D-01 BMatC= 1.10D-02 BMatP= 3.46D-02
 IDIUse=3 WtCom= 9.63D-01 WtEn= 3.68D-02
 Coeff-Com:  0.876D-02 0.238D-01 0.355D+00 0.612D+00
 Coeff-En:   0.000D+00 0.000D+00 0.278D+00 0.722D+00
 Coeff:      0.844D-02 0.229D-01 0.352D+00 0.616D+00
 Gap=     0.205 Goal=   None    Shift=    0.000
 Gap=     0.205 Goal=   None    Shift=    0.000
 RMSDP=3.01D-04 MaxDP=1.05D-02 DE=-4.62D-03 OVMax= 1.36D-02

 Cycle   5  Pass 1  IDiag  1:
 E= -699.774905794816     Delta-E=       -0.001979454196 Rises=F Damp=F
 DIIS: error= 6.88D-04 at cycle   5 NSaved=   5.
 NSaved= 5 IEnMin= 5 EnMin= -699.774905794816     IErMin= 5 ErrMin= 6.88D-04
 ErrMax= 6.88D-04  0.00D+00 EMaxC= 1.00D-01 BMatC= 3.82D-04 BMatP= 1.10D-02
 IDIUse=3 WtCom= 9.93D-01 WtEn= 6.88D-03
 Coeff-Com:  0.113D-02 0.181D-02 0.157D+00 0.307D+00 0.533D+00
 Coeff-En:   0.000D+00 0.000D+00 0.000D+00 0.000D+00 0.100D+01
 Coeff:      0.112D-02 0.179D-02 0.156D+00 0.305D+00 0.536D+00
 Gap=     0.202 Goal=   None    Shift=    0.000
 Gap=     0.202 Goal=   None    Shift=    0.000
 RMSDP=7.50D-05 MaxDP=1.73D-03 DE=-1.98D-03 OVMax= 1.96D-03

 Cycle   6  Pass 1  IDiag  1:
 E= -699.774990728708     Delta-E=       -0.000084933892 Rises=F Damp=F
 DIIS: error= 8.29D-05 at cycle   6 NSaved=   6.
 NSaved= 6 IEnMin= 6 EnMin= -699.774990728708     IErMin= 6 ErrMin= 8.29D-05
 ErrMax= 8.29D-05  0.00D+00 EMaxC= 1.00D-01 BMatC= 1.13D-05 BMatP= 3.82D-04
 IDIUse=1 WtCom= 1.00D+00 WtEn= 0.00D+00
 Coeff-Com:  0.164D-03-0.110D-02 0.351D-01 0.693D-01 0.198D+00 0.698D+00
 Coeff:      0.164D-03-0.110D-02 0.351D-01 0.693D-01 0.198D+00 0.698D+00
 Gap=     0.202 Goal=   None    Shift=    0.000
 Gap=     0.202 Goal=   None    Shift=    0.000
 RMSDP=1.72D-05 MaxDP=3.93D-04 DE=-8.49D-05 OVMax= 6.68D-04

 Cycle   7  Pass 1  IDiag  1:
 E= -699.774991311074     Delta-E=       -0.000000582366 Rises=F Damp=F
 DIIS: error= 1.09D-04 at cycle   7 NSaved=   7.
 NSaved= 7 IEnMin= 7 EnMin= -699.774991311074     IErMin= 6 ErrMin= 8.29D-05
 ErrMax= 1.09D-04  0.00D+00 EMaxC= 1.00D-01 BMatC= 8.94D-06 BMatP= 1.13D-05
 IDIUse=1 WtCom= 1.00D+00 WtEn= 0.00D+00
 Coeff-Com: -0.271D-04-0.119D-02 0.594D-02 0.121D-01 0.820D-01 0.524D+00
 Coeff-Com:  0.377D+00
 Coeff:     -0.271D-04-0.119D-02 0.594D-02 0.121D-01 0.820D-01 0.524D+00
 Coeff:      0.377D+00
 Gap=     0.202 Goal=   None    Shift=    0.000
 Gap=     0.202 Goal=   None    Shift=    0.000
 RMSDP=8.81D-06 MaxDP=2.74D-04 DE=-5.82D-07 OVMax= 3.74D-04

 Cycle   8  Pass 1  IDiag  1:
 E= -699.774993042379     Delta-E=       -0.000001731305 Rises=F Damp=F
 DIIS: error= 4.11D-06 at cycle   8 NSaved=   8.
 NSaved= 8 IEnMin= 8 EnMin= -699.774993042379     IErMin= 8 ErrMin= 4.11D-06
 ErrMax= 4.11D-06  0.00D+00 EMaxC= 1.00D-01 BMatC= 1.82D-08 BMatP= 8.94D-06
 IDIUse=1 WtCom= 1.00D+00 WtEn= 0.00D+00
 Coeff-Com: -0.413D-05-0.244D-03-0.727D-04 0.469D-03 0.141D-01 0.110D+00
 Coeff-Com:  0.924D-01 0.783D+00
 Coeff:     -0.413D-05-0.244D-03-0.727D-04 0.469D-03 0.141D-01 0.110D+00
 Coeff:      0.924D-01 0.783D+00
 Gap=     0.202 Goal=   None    Shift=    0.000
 Gap=     0.202 Goal=   None    Shift=    0.000
 RMSDP=5.83D-07 MaxDP=8.70D-06 DE=-1.73D-06 OVMax= 1.31D-05

 Cycle   9  Pass 1  IDiag  1:
 E= -699.774993046080     Delta-E=       -0.000000003701 Rises=F Damp=F
 DIIS: error= 7.95D-07 at cycle   9 NSaved=   9.
 NSaved= 9 IEnMin= 9 EnMin= -699.774993046080     IErMin= 9 ErrMin= 7.95D-07
 ErrMax= 7.95D-07  0.00D+00 EMaxC= 1.00D-01 BMatC= 9.54D-10 BMatP= 1.82D-08
 IDIUse=1 WtCom= 1.00D+00 WtEn= 0.00D+00
 Coeff-Com: -0.161D-05 0.146D-04-0.414D-03-0.579D-03-0.975D-03-0.166D-02
 Coeff-Com:  0.228D-02 0.184D+00 0.818D+00
 Coeff:     -0.161D-05 0.146D-04-0.414D-03-0.579D-03-0.975D-03-0.166D-02
 Coeff:      0.228D-02 0.184D+00 0.818D+00
 Gap=     0.202 Goal=   None    Shift=    0.000
 Gap=     0.202 Goal=   None    Shift=    0.000
 RMSDP=1.50D-07 MaxDP=2.15D-06 DE=-3.70D-09 OVMax= 3.35D-06

 Cycle  10  Pass 1  IDiag  1:
 E= -699.774993046257     Delta-E=       -0.000000000176 Rises=F Damp=F
 DIIS: error= 3.50D-07 at cycle  10 NSaved=  10.
 NSaved=10 IEnMin=10 EnMin= -699.774993046257     IErMin=10 ErrMin= 3.50D-07
 ErrMax= 3.50D-07  0.00D+00 EMaxC= 1.00D-01 BMatC= 1.92D-10 BMatP= 9.54D-10
 IDIUse=1 WtCom= 1.00D+00 WtEn= 0.00D+00
 Coeff-Com: -0.196D-05 0.140D-04-0.213D-03-0.309D-03-0.819D-03-0.324D-02
 Coeff-Com: -0.879D-03 0.786D-01 0.431D+00 0.496D+00
 Coeff:     -0.196D-05 0.140D-04-0.213D-03-0.309D-03-0.819D-03-0.324D-02
 Coeff:     -0.879D-03 0.786D-01 0.431D+00 0.496D+00
 Gap=     0.202 Goal=   None    Shift=    0.000
 Gap=     0.202 Goal=   None    Shift=    0.000
 RMSDP=5.87D-08 MaxDP=1.45D-06 DE=-1.76D-10 OVMax= 2.30D-06

 Cycle  11  Pass 1  IDiag  1:
 E= -699.774993046286     Delta-E=       -0.000000000029 Rises=F Damp=F
 DIIS: error= 2.22D-07 at cycle  11 NSaved=  11.
 NSaved=11 IEnMin=11 EnMin= -699.774993046286     IErMin=11 ErrMin= 2.22D-07
 ErrMax= 2.22D-07  0.00D+00 EMaxC= 1.00D-01 BMatC= 6.70D-11 BMatP= 1.92D-10
 IDIUse=1 WtCom= 1.00D+00 WtEn= 0.00D+00
 Coeff-Com: -0.163D-05 0.724D-05-0.596D-04-0.923D-04-0.374D-03-0.191D-02
 Coeff-Com: -0.114D-02 0.145D-01 0.121D+00 0.367D+00 0.501D+00
 Coeff:     -0.163D-05 0.724D-05-0.596D-04-0.923D-04-0.374D-03-0.191D-02
 Coeff:     -0.114D-02 0.145D-01 0.121D+00 0.367D+00 0.501D+00
 Gap=     0.202 Goal=   None    Shift=    0.000
 Gap=     0.202 Goal=   None    Shift=    0.000
 RMSDP=2.40D-08 MaxDP=6.11D-07 DE=-2.89D-11 OVMax= 9.62D-07

 Cycle  12  Pass 1  IDiag  1:
 E= -699.774993046289     Delta-E=       -0.000000000004 Rises=F Damp=F
 DIIS: error= 2.01D-08 at cycle  12 NSaved=  12.
 NSaved=12 IEnMin=12 EnMin= -699.774993046289     IErMin=12 ErrMin= 2.01D-08
 ErrMax= 2.01D-08  0.00D+00 EMaxC= 1.00D-01 BMatC= 6.14D-13 BMatP= 6.70D-11
 IDIUse=1 WtCom= 1.00D+00 WtEn= 0.00D+00
 Coeff-Com: -0.447D-06 0.669D-06-0.489D-06-0.331D-05-0.301D-04-0.101D-03
 Coeff-Com: -0.833D-04-0.139D-02-0.409D-02 0.312D-01 0.789D-01 0.896D+00
 Coeff:     -0.447D-06 0.669D-06-0.489D-06-0.331D-05-0.301D-04-0.101D-03
 Coeff:     -0.833D-04-0.139D-02-0.409D-02 0.312D-01 0.789D-01 0.896D+00
 Gap=     0.202 Goal=   None    Shift=    0.000
 Gap=     0.202 Goal=   None    Shift=    0.000
 RMSDP=2.99D-09 MaxDP=5.49D-08 DE=-3.87D-12 OVMax= 7.79D-08

 SCF Done:  E(UB3LYP) =  -699.774993046     A.U. after   12 cycles
            NFock= 12  Conv=0.30D-08     -V/T= 2.0044
 <Sx>= 0.0000 <Sy>= 0.0000 <Sz>= 0.0000 <S**2>=-0.0000 S=-0.0000
 <L.S>= 0.000000000000E+00
 KE= 6.967397570352D+02 PE=-2.202461222487D+03 EE= 5.386480530803D+02
 Annihilation of the first spin contaminant:
 S**2 before annihilation    -0.0000,   after    -0.0000
 Leave Link  502 at Sun Aug  2 03:09:52 2020, MaxMem=   524288000 cpu:              82.1 elap:              12.4
 (Enter /home/ubuntu/g16/l601.exe)
 Copying SCF densities to generalized density rwf, IOpCl= 1 IROHF=0.

 **********************************************************************

            Population analysis using the SCF density.

 **********************************************************************

 Orbital symmetries:
 Alpha Orbitals:
       Occupied  (A) (A) (A) (A) (A) (A) (A) (A) (A) (A) (A) (A)
                 (A) (A) (A) (A) (A) (A) (A) (A) (A) (A) (A) (A)
                 (A)
       Virtual   (A) (A) (A) (A) (A) (A) (A) (A) (A) (A) (A) (A)
                 (A) (A) (A) (A) (A) (A) (A) (A) (A) (A) (A) (A)
                 (A) (A) (A) (A) (A) (A) (A) (A) (A) (A) (A) (A)
                 (A) (A) (A) (A) (A) (A) (A) (A) (A) (A) (A) (A)
                 (A) (A) (A) (A) (A) (A) (A) (A) (A) (A) (A) (A)
                 (A) (A) (A) (A) (A) (A) (A) (A) (A) (A) (A) (A)
                 (A) (A) (A) (A) (A) (A) (A) (A) (A) (A) (A) (A)
                 (A) (A) (A) (A) (A) (A) (A) (A) (A) (A) (A) (A)
                 (A) (A) (A) (A) (A) (A) (A)
 Beta  Orbitals:
       Occupied  (A) (A) (A) (A) (A) (A) (A) (A) (A) (A) (A) (A)
                 (A) (A) (A) (A) (A) (A) (A) (A) (A) (A) (A) (A)
                 (A)
       Virtual   (A) (A) (A) (A) (A) (A) (A) (A) (A) (A) (A) (A)
                 (A) (A) (A) (A) (A) (A) (A) (A) (A) (A) (A) (A)
                 (A) (A) (A) (A) (A) (A) (A) (A) (A) (A) (A) (A)
                 (A) (A) (A) (A) (A) (A) (A) (A) (A) (A) (A) (A)
                 (A) (A) (A) (A) (A) (A) (A) (A) (A) (A) (A) (A)
                 (A) (A) (A) (A) (A) (A) (A) (A) (A) (A) (A) (A)
                 (A) (A) (A) (A) (A) (A) (A) (A) (A) (A) (A) (A)
                 (A) (A) (A) (A) (A) (A) (A) (A) (A) (A) (A) (A)
                 (A) (A) (A) (A) (A) (A) (A)
 The electronic state is 1-A.
     Natural Orbital Coefficients:
                           1         2         3         4         5
     Eigenvalues --     2.00000   2.00000   2.00000   2.00000   2.00000
   1 1   S  1S         -0.00253  -0.01024  -0.01802  -0.00745  -0.06443
   2        2S          0.04741   0.07261  -0.02631  -0.04174   0.03935
   3        3S          0.38389  -0.07929   0.16453  -0.07438   0.00085
   4        4S          0.27954  -0.08675   0.08218  -0.05443   0.08092
   5        5S          0.09722  -0.06397   0.05020  -0.06445   0.07315
   6        6PX        -0.03257   0.55578   0.65759   0.16378   0.06199
   7        6PY         0.14988   0.63489  -0.25333  -0.46074   0.09113
   8        6PZ        -0.01320   0.05862   0.05650  -0.55287  -0.42221
   9        7PX        -0.10136  -0.04397   0.10758  -0.16652   0.20746
  10        7PY         0.06609   0.07503  -0.03759   0.11251   0.02190
  11        7PZ         0.02162   0.06022  -0.09266   0.05587   0.09998
  12        8PX        -0.02267  -0.01659   0.02307  -0.05862   0.00659
  13        8PY         0.02346   0.02036   0.00107   0.04374  -0.03141
  14        8PZ         0.01404   0.01583  -0.01502   0.03609  -0.01831
  15        9PX        -0.00929   0.00515  -0.00105   0.00332   0.00236
  16        9PY        -0.00479  -0.00761   0.00938  -0.00129   0.00990
  17        9PZ        -0.00157  -0.00571   0.00267  -0.00693   0.00592
  18       10D 0       -0.00487   0.00655  -0.01215  -0.01591   0.00907
  19       10D+1       -0.01405   0.00775  -0.00074  -0.01766  -0.01525
  20       10D-1        0.01030   0.00589  -0.01039  -0.00163  -0.08460
  21       10D+2        0.00540  -0.01709  -0.00364  -0.03529  -0.01863
  22       10D-2       -0.01709  -0.00577   0.01239  -0.00866   0.01535
  23       11D 0        0.00346   0.00369  -0.00777   0.00278  -0.00562
  24       11D+1        0.00005   0.00237  -0.00531   0.00060  -0.00751
  25       11D-1       -0.00751  -0.00183   0.00016  -0.01114   0.02775
  26       11D+2       -0.00199  -0.00494   0.00864  -0.01090  -0.00219
  27       11D-2       -0.00462  -0.00184  -0.00740  -0.00725   0.00116
  28 2   O  1S          0.15121  -0.06899  -0.33406  -0.09966   0.51535
  29        2S         -0.13756   0.00982   0.03231   0.00619  -0.23676
  30        3S         -0.19227   0.03992   0.03553   0.04199  -0.30099
  31        4S         -0.06791   0.03911  -0.01327   0.05218  -0.06339
  32        5PX         0.03167  -0.04849   0.05151  -0.04057   0.03152
  33        5PY         0.09131  -0.01532   0.05771  -0.05282  -0.07674
  34        5PZ         0.08358  -0.02481  -0.00068  -0.03336  -0.04886
  35        6PX         0.01453  -0.02865   0.03117  -0.02006   0.02230
  36        6PY         0.03801   0.00175   0.03520  -0.01959  -0.04581
  37        6PZ         0.03530  -0.00363  -0.01028  -0.01195  -0.03214
  38        7PX         0.00422  -0.00562   0.00217   0.00394  -0.00206
  39        7PY         0.00011   0.01010   0.00318   0.00591  -0.01127
  40        7PZ         0.00096   0.00797  -0.01166   0.00661  -0.01224
  41        8D 0        0.00107  -0.00039  -0.00058   0.00053  -0.00057
  42        8D+1        0.00136  -0.00194   0.00283  -0.00246   0.00006
  43        8D-1        0.00584  -0.00225   0.00362  -0.00212  -0.00675
  44        8D+2       -0.00320   0.00009  -0.00125  -0.00006   0.00416
  45        8D-2        0.00144  -0.00209   0.00324  -0.00293  -0.00026
  46        9D 0        0.00111   0.00144  -0.00494  -0.00068  -0.00053
  47        9D+1       -0.00103  -0.00172   0.00209  -0.00355   0.00325
  48        9D-1       -0.00007   0.00197   0.00067   0.00126  -0.00166
  49        9D+2       -0.00143  -0.00276  -0.00156  -0.00421   0.00167
  50        9D-2       -0.00058  -0.00158   0.00339  -0.00193   0.00266
  51 3   O  1S          0.09697  -0.06067  -0.10966  -0.12117   0.11363
  52        2S         -0.14199   0.06180  -0.07919   0.05973   0.05298
  53        3S         -0.21009   0.08302  -0.11029   0.07810   0.03013
  54        4S         -0.08342   0.03480  -0.05425   0.02612  -0.02820
  55        5PX        -0.09745  -0.02681  -0.02608  -0.12012  -0.01898
  56        5PY        -0.09353   0.09357  -0.12652   0.13425  -0.10068
  57        5PZ         0.04152   0.03297   0.06361   0.07658   0.03943
  58        6PX        -0.04414  -0.02052  -0.00689  -0.07661   0.00385
  59        6PY        -0.03432   0.05260  -0.06234   0.08306  -0.03911
  60        6PZ         0.01474   0.02698   0.03458   0.05697   0.01882
  61        7PX         0.00476  -0.00553   0.00138  -0.01612  -0.00448
  62        7PY         0.00499   0.00921  -0.00404   0.01603  -0.00788
  63        7PZ        -0.00496   0.00874   0.00996   0.01836   0.00153
  64        8D 0       -0.00223   0.00192  -0.00234   0.00223  -0.00073
  65        8D+1       -0.00313  -0.00156  -0.00063  -0.00351  -0.00071
  66        8D-1       -0.00323  -0.00012  -0.00303   0.00015  -0.00314
  67        8D+2       -0.00066   0.00350  -0.00429   0.00719  -0.00378
  68        8D-2        0.00586  -0.00026   0.00287   0.00154   0.00131
  69        9D 0        0.00023   0.00208   0.00079   0.00455   0.00630
  70        9D+1       -0.00005  -0.00276   0.00165  -0.00515   0.00121
  71        9D-1        0.00049  -0.00174   0.00071  -0.00265  -0.00182
  72        9D+2        0.00142   0.00342  -0.00229   0.00748  -0.00029
  73        9D-2        0.00072   0.00025  -0.00148   0.00239  -0.00945
  74 4   O  1S          0.05254  -0.08771  -0.01571  -0.01310   0.05162
  75        2S         -0.11414   0.03712  -0.05432  -0.10111  -0.07291
  76        3S         -0.08998   0.08736  -0.09000  -0.06192  -0.12048
  77        4S         -0.04448   0.03339  -0.03204  -0.01065  -0.02191
  78        5PX         0.24631   0.06939  -0.07658   0.19017  -0.18048
  79        5PY         0.01721   0.15616  -0.10412   0.05291  -0.06038
  80        5PZ         0.00263   0.05916  -0.03005   0.08062   0.00950
  81        6PX         0.10177   0.02387  -0.03350   0.07552  -0.10533
  82        6PY        -0.02230   0.07896  -0.05477  -0.00429  -0.02155
  83        6PZ        -0.00866   0.02906  -0.01399   0.04062   0.01333
  84        7PX         0.01008   0.00111  -0.00498   0.01054  -0.02412
  85        7PY         0.00924   0.02117  -0.01472   0.00745  -0.01491
  86        7PZ         0.00666   0.00889  -0.00264   0.01708  -0.00913
  87        8D 0       -0.00034   0.00134  -0.00077   0.00037  -0.00088
  88        8D+1       -0.00663  -0.00160   0.00090  -0.00432   0.00462
  89        8D-1       -0.00135  -0.00355   0.00218  -0.00416  -0.00031
  90        8D+2        0.00472   0.00412  -0.00266   0.00341  -0.00274
  91        8D-2       -0.01144  -0.00308   0.00314  -0.00717   0.00646
  92        9D 0       -0.00647  -0.00376   0.00162  -0.00761   0.00321
  93        9D+1        0.00410   0.00353  -0.00342   0.00710   0.00205
  94        9D-1        0.00768   0.00027   0.00092   0.00450  -0.00398
  95        9D+2       -0.00216   0.00525  -0.00335  -0.00315  -0.00501
  96        9D-2        0.00916   0.00877  -0.00712   0.01197  -0.00182
  97 5   H  1S         -0.19234  -0.12680   0.09016  -0.19122   0.10554
  98        2S         -0.01190  -0.02326   0.01887  -0.01182   0.00498
  99        3S         -0.00391   0.00320  -0.00227   0.00691  -0.00595
 100        4PX        -0.01029  -0.00891   0.00402  -0.01254  -0.00068
 101        4PY        -0.02042  -0.00709   0.00506  -0.01970   0.00807
 102        4PZ        -0.00858  -0.00376   0.00318  -0.00595   0.00554
 103        5PX         0.00369   0.00371  -0.00466   0.00513  -0.01000
 104        5PY        -0.00036   0.00218  -0.00136  -0.00226  -0.00221
 105        5PZ         0.00092  -0.00055   0.00245   0.00341   0.00460
 106 6   O  1S          0.07561   0.01294   0.02668   0.08063  -0.02727
 107        2S         -0.15198   0.08087  -0.03354   0.05873   0.06814
 108        3S         -0.21649   0.09949  -0.04587   0.07772   0.05500
 109        4S         -0.07703   0.03916  -0.02168   0.04592  -0.02684
 110        5PX        -0.05245  -0.01812   0.01881  -0.04953  -0.13771
 111        5PY         0.06756   0.02212  -0.09200  -0.08665  -0.04431
 112        5PZ        -0.08232   0.06715  -0.09366   0.10481  -0.09664
 113        6PX        -0.02009  -0.01636   0.01373  -0.03717  -0.08023
 114        6PY         0.03389   0.01843  -0.06746  -0.04861  -0.04000
 115        6PZ        -0.02993   0.03595  -0.05642   0.05090  -0.03568
 116        7PX         0.00777  -0.00610   0.00106  -0.00803  -0.02752
 117        7PY         0.00392   0.00781  -0.02442  -0.01364  -0.02066
 118        7PZ         0.00420   0.00472  -0.01001   0.00362  -0.00215
 119        8D 0        0.00171  -0.00297   0.00531  -0.00494   0.00385
 120        8D+1        0.00393  -0.00007   0.00069   0.00077   0.00464
 121        8D-1       -0.00373  -0.00014   0.00010   0.00341  -0.00190
 122        8D+2        0.00015  -0.00037   0.00055   0.00168   0.00133
 123        8D-2       -0.00267  -0.00110   0.00150  -0.00069  -0.00102
 124        9D 0       -0.00147  -0.00376   0.00671  -0.00335  -0.00416
 125        9D+1        0.00050   0.00210   0.00006   0.00499  -0.00366
 126        9D-1       -0.00173  -0.00184   0.00301  -0.00230   0.00329
 127        9D+2       -0.00065   0.00023   0.00124   0.00148   0.00060
 128        9D-2       -0.00111  -0.00241   0.00372  -0.00303   0.00195
                           6         7         8         9        10
     Eigenvalues --     2.00000   2.00000   2.00000   2.00000   2.00000
   1 1   S  1S         -0.00008  -0.01873  -0.02350  -0.07881   0.06469
   2        2S         -0.05792  -0.01937  -0.03977  -0.03374  -0.04155
   3        3S         -0.01776  -0.05019  -0.01099   0.25333  -0.02318
   4        4S         -0.00508   0.01182  -0.01563  -0.09021  -0.01040
   5        5S         -0.01698   0.00839  -0.00088  -0.09389  -0.00622
   6        6PX         0.37972   0.08928   0.16961  -0.08623  -0.05156
   7        6PY        -0.20822  -0.40528  -0.13196  -0.02148   0.03375
   8        6PZ         0.12035   0.56477  -0.22528  -0.03917  -0.26721
   9        7PX        -0.09183   0.00146  -0.03537   0.06920   0.13150
  10        7PY         0.00557   0.16089  -0.03385  -0.01511   0.08476
  11        7PZ        -0.06601   0.14879   0.00492   0.00773   0.07109
  12        8PX        -0.01599  -0.01395   0.00901   0.00693   0.07443
  13        8PY         0.00656   0.02430  -0.00877  -0.02537   0.02552
  14        8PZ        -0.00812   0.01718  -0.02627   0.01955   0.06457
  15        9PX        -0.00208   0.00481  -0.00771   0.00288   0.01224
  16        9PY        -0.00354   0.00492  -0.01610  -0.01203   0.01337
  17        9PZ        -0.00544   0.00201   0.01697   0.00602   0.00106
  18       10D 0       -0.03106   0.01778   0.09003   0.04308  -0.03081
  19       10D+1        0.01623  -0.03031   0.03903   0.00102  -0.04433
  20       10D-1        0.04619  -0.04561   0.00256   0.00859  -0.00020
  21       10D+2       -0.00551   0.00804   0.10080  -0.02299   0.03204
  22       10D-2        0.00589   0.00903  -0.05210  -0.01734   0.05858
  23       11D 0       -0.00553   0.01349   0.02406   0.00361   0.01079
  24       11D+1        0.01029   0.00329   0.00387  -0.00851   0.00525
  25       11D-1       -0.00281   0.01183   0.00201   0.00613  -0.00308
  26       11D+2       -0.00119  -0.00759   0.01192   0.01114   0.00191
  27       11D-2        0.00514   0.00227   0.00877  -0.01423  -0.00740
  28 2   O  1S          0.67914   0.11018   0.02434   0.08237  -0.03304
  29        2S          0.13212  -0.13821  -0.07989   0.13294   0.16516
  30        3S          0.10397  -0.13473  -0.09502   0.15819   0.23555
  31        4S          0.00872   0.00370  -0.03189   0.05463   0.08775
  32        5PX        -0.03677  -0.07799  -0.06147   0.19550  -0.17179
  33        5PY        -0.04030  -0.00752   0.21748   0.13602  -0.12436
  34        5PZ         0.12463  -0.17627  -0.17138  -0.13010  -0.07425
  35        6PX        -0.02794  -0.04502  -0.04341   0.13631  -0.11368
  36        6PY        -0.04226   0.01634   0.13430   0.10141  -0.05724
  37        6PZ         0.07212  -0.10001  -0.10494  -0.08603  -0.02350
  38        7PX        -0.00367  -0.01051  -0.01002   0.03681  -0.03865
  39        7PY        -0.01648   0.01422   0.03137   0.03550  -0.00602
  40        7PZ         0.02468  -0.02322  -0.03665  -0.02988   0.00483
  41        8D 0        0.00303  -0.00383  -0.00748  -0.00386   0.00055
  42        8D+1       -0.00002  -0.00463  -0.00325   0.00500  -0.00275
  43        8D-1        0.00329  -0.00701   0.00048   0.00404  -0.00290
  44        8D+2       -0.00065   0.00068  -0.00499  -0.00230   0.00185
  45        8D-2       -0.00117  -0.00307   0.00028   0.00663  -0.00251
  46        9D 0        0.00313  -0.00334   0.00041  -0.00834   0.00349
  47        9D+1       -0.00277  -0.00127  -0.00069   0.00796  -0.00176
  48        9D-1       -0.00166   0.00284   0.00087   0.00406   0.00419
  49        9D+2        0.00272  -0.00571  -0.00158  -0.00485  -0.00258
  50        9D-2       -0.00289  -0.00034  -0.00332   0.00958  -0.00080
  51 3   O  1S          0.18565  -0.04814   0.08735  -0.26703  -0.06578
  52        2S         -0.01539   0.03505  -0.03193   0.24531   0.00390
  53        3S         -0.02180   0.02874  -0.00669   0.32052  -0.01851
  54        4S          0.00338  -0.01293   0.03574   0.09594  -0.02918
  55        5PX        -0.06074   0.03884   0.21743  -0.02002   0.26218
  56        5PY         0.05917  -0.05997  -0.03320   0.06974  -0.25678
  57        5PZ        -0.00947   0.09329  -0.26957   0.05670   0.11582
  58        6PX        -0.04681   0.04087   0.12768  -0.02798   0.19546
  59        6PY         0.03464  -0.02750  -0.05282   0.02889  -0.15379
  60        6PZ        -0.01341   0.06364  -0.16278   0.05628   0.06393
  61        7PX        -0.01243   0.01908   0.04045  -0.00883   0.05918
  62        7PY         0.00748  -0.01004  -0.01839   0.01740  -0.04626
  63        7PZ        -0.00597   0.01570  -0.05007   0.02058   0.01265
  64        8D 0        0.00035   0.00153  -0.00233  -0.00139   0.00105
  65        8D+1       -0.00060  -0.00190   0.00629  -0.00330   0.00053
  66        8D-1        0.00100  -0.00314   0.00571  -0.00423  -0.00638
  67        8D+2        0.00313  -0.00076  -0.00382  -0.00211  -0.00963
  68        8D-2        0.00059   0.00034  -0.00342   0.00483  -0.00350
  69        9D 0       -0.00470   0.00765  -0.00740   0.00248   0.00264
  70        9D+1        0.00091  -0.00310   0.00226  -0.00747   0.00477
  71        9D-1        0.00515  -0.00605  -0.00127  -0.01044  -0.00260
  72        9D+2        0.00436   0.00041  -0.00871  -0.00204  -0.01282
  73        9D-2        0.00526  -0.00759   0.00242   0.00674  -0.01403
  74 4   O  1S          0.06915   0.21165  -0.03563   0.08187   0.08888
  75        2S          0.03302   0.00383   0.07242   0.07776   0.05578
  76        3S          0.03404   0.00812   0.10469   0.09730   0.08967
  77        4S         -0.00155  -0.00028   0.03726   0.04688   0.01473
  78        5PX         0.03910   0.05747   0.07461   0.01561   0.05424
  79        5PY         0.00884   0.03305   0.12582   0.00512   0.10300
  80        5PZ        -0.04998   0.04786  -0.19481   0.05553   0.11122
  81        6PX         0.02830   0.02067   0.04826   0.02976   0.02483
  82        6PY         0.00832   0.01311   0.08107  -0.00578   0.05966
  83        6PZ        -0.03015   0.02738  -0.13745   0.02898   0.06819
  84        7PX         0.00596  -0.00554   0.00960   0.01198  -0.00247
  85        7PY         0.00618   0.00475   0.02012  -0.00925   0.02368
  86        7PZ        -0.00041   0.00174  -0.03786   0.00215   0.01306
  87        8D 0        0.00041  -0.00078   0.00416  -0.00215   0.00011
  88        8D+1       -0.00188  -0.00022  -0.00078  -0.00030   0.00071
  89        8D-1        0.00181  -0.00229   0.00300  -0.00123  -0.00349
  90        8D+2        0.00067   0.00216   0.00232   0.00266   0.00097
  91        8D-2       -0.00072  -0.00281  -0.00439  -0.00042  -0.00333
  92        9D 0        0.00005  -0.00158   0.00748  -0.00394  -0.00482
  93        9D+1       -0.00139   0.00291  -0.00659  -0.00557   0.00409
  94        9D-1        0.00049  -0.00073   0.00442   0.00056  -0.00305
  95        9D+2        0.00204   0.00161   0.00933   0.00454   0.00986
  96        9D-2       -0.00176   0.00531   0.00384  -0.00757   0.00577
  97 5   H  1S          0.00204  -0.06217  -0.04846  -0.00229  -0.09145
  98        2S          0.00570  -0.00523  -0.02243  -0.01928   0.00782
  99        3S          0.00182  -0.00061  -0.00442   0.00595  -0.00146
 100        4PX         0.00292  -0.00432   0.00172  -0.00238  -0.00181
 101        4PY        -0.00003  -0.00524   0.00241   0.00385  -0.00715
 102        4PZ        -0.00234  -0.00110  -0.01071   0.00444  -0.00141
 103        5PX         0.00011   0.00591   0.00822  -0.00837   0.02478
 104        5PY        -0.00075   0.00026   0.00990   0.00852  -0.00515
 105        5PZ        -0.00246   0.00211  -0.01615   0.00636  -0.00122
 106 6   O  1S         -0.05367  -0.01728   0.01526  -0.24293   0.03625
 107        2S         -0.07044   0.02222   0.05364   0.05990  -0.19891
 108        3S         -0.05578   0.01296   0.04371   0.07553  -0.24896
 109        4S          0.01583  -0.00578  -0.01404   0.00580  -0.05799
 110        5PX         0.13806  -0.18815   0.00120  -0.09630  -0.09149
 111        5PY         0.06196  -0.02346   0.23084   0.02202  -0.00919
 112        5PZ         0.05904   0.05222  -0.00912  -0.09490  -0.01971
 113        6PX         0.08472  -0.12397   0.00705  -0.06323  -0.06740
 114        6PY         0.05299  -0.02583   0.13912   0.01044  -0.01718
 115        6PZ         0.02318   0.04321   0.01025  -0.06133  -0.00861
 116        7PX         0.02599  -0.03919   0.00371  -0.01430  -0.02626
 117        7PY         0.02361  -0.02003   0.04283  -0.00388  -0.02150
 118        7PZ         0.00154   0.00847  -0.00160  -0.00641   0.00940
 119        8D 0       -0.00201  -0.00421  -0.00174   0.00444  -0.00125
 120        8D+1       -0.00399   0.00353  -0.00101   0.00521  -0.00019
 121        8D-1        0.00058  -0.00072  -0.00553  -0.00417  -0.00091
 122        8D+2       -0.00209   0.00163  -0.00206   0.00059  -0.00009
 123        8D-2        0.00130  -0.00285  -0.00283  -0.00290  -0.00021
 124        9D 0        0.00043  -0.00826  -0.00325   0.00473  -0.00107
 125        9D+1       -0.00133   0.00331  -0.00207   0.00458   0.00452
 126        9D-1       -0.00487   0.00287   0.00144  -0.00223   0.00241
 127        9D+2       -0.00311   0.00419  -0.00084   0.00085   0.00421
 128        9D-2       -0.00260  -0.00128   0.00060  -0.00031   0.00086
                          11        12        13        14        15
     Eigenvalues --     2.00000   2.00000   2.00000   2.00000   2.00000
   1 1   S  1S         -0.03835   0.10364  -0.20495   0.07564   0.17925
   2        2S          0.13434   0.08320   0.31022   0.23540   0.12794
   3        3S         -0.05772  -0.06457  -0.02742  -0.05991   0.01645
   4        4S         -0.01133  -0.02127  -0.06464   0.02509  -0.03482
   5        5S         -0.00510   0.00597  -0.04403   0.03232  -0.04057
   6        6PX         0.00522  -0.00373  -0.07359   0.05897   0.01042
   7        6PY         0.18947   0.02424  -0.00789  -0.01594  -0.00512
   8        6PZ        -0.06193   0.00575   0.09279  -0.04611   0.07922
   9        7PX        -0.11275  -0.00448   0.06069   0.04099  -0.00467
  10        7PY        -0.03838   0.00643   0.12587  -0.17517  -0.27118
  11        7PZ         0.01443  -0.06715  -0.10264   0.27792  -0.04230
  12        8PX        -0.03110  -0.00110  -0.03248  -0.01674   0.01448
  13        8PY         0.04962  -0.03844   0.04586  -0.02625  -0.02640
  14        8PZ        -0.00398  -0.02618  -0.02808   0.08723  -0.03330
  15        9PX         0.00241  -0.02542  -0.00012  -0.00862   0.00492
  16        9PY         0.00693  -0.00828   0.00996  -0.01654  -0.00257
  17        9PZ         0.00792  -0.01381  -0.00406   0.01050  -0.01116
  18       10D 0        0.04765  -0.05753  -0.02145   0.06832   0.00686
  19       10D+1        0.01634   0.01116  -0.00415   0.05393  -0.01133
  20       10D-1        0.00206   0.09070  -0.01744   0.03849  -0.00955
  21       10D+2        0.00644   0.06554   0.01612   0.01328  -0.00515
  22       10D-2       -0.01764   0.00217   0.03026  -0.01511  -0.01123
  23       11D 0       -0.00196   0.00005  -0.00421  -0.00638  -0.01122
  24       11D+1       -0.01161   0.01997  -0.00125  -0.01333  -0.02259
  25       11D-1       -0.01148   0.01595   0.01164   0.00910  -0.02287
  26       11D+2        0.00142   0.00991   0.01663   0.01119  -0.00441
  27       11D-2        0.00863   0.00569  -0.01864   0.01120  -0.00310
  28 2   O  1S          0.04383   0.11536  -0.05095  -0.02722   0.15611
  29        2S          0.16159  -0.10412   0.03595   0.06130  -0.02820
  30        3S          0.18532  -0.15308   0.05914   0.07018  -0.04347
  31        4S          0.04707  -0.08539   0.03314   0.01271  -0.01138
  32        5PX         0.01097   0.02105  -0.08258   0.02216  -0.01884
  33        5PY         0.16851   0.19903  -0.10089  -0.04049   0.06085
  34        5PZ        -0.24725  -0.05978   0.03444  -0.00895   0.15759
  35        6PX         0.01219   0.01304  -0.04942   0.01910  -0.02669
  36        6PY         0.11933   0.11969  -0.06537  -0.03399   0.03136
  37        6PZ        -0.17034  -0.06928   0.04150  -0.00859   0.09565
  38        7PX         0.01212   0.01109  -0.01494   0.01085  -0.02131
  39        7PY         0.04582   0.03139  -0.02590   0.00652   0.00708
  40        7PZ        -0.05592  -0.03460   0.02459   0.00036   0.01737
  41        8D 0       -0.00570  -0.00411  -0.00030   0.00209   0.00475
  42        8D+1       -0.00172  -0.00138  -0.00185   0.00004   0.00308
  43        8D-1        0.00042   0.00063  -0.00121  -0.00223   0.00571
  44        8D+2       -0.00397  -0.00149   0.00054   0.00298  -0.00096
  45        8D-2        0.00093  -0.00011  -0.00173  -0.00104   0.00182
  46        9D 0       -0.01267  -0.01418   0.00573   0.00750   0.00734
  47        9D+1       -0.00100   0.00004   0.00030   0.00265  -0.00278
  48        9D-1       -0.00071  -0.00683   0.00019  -0.00454  -0.00132
  49        9D+2       -0.00555  -0.00307   0.00150   0.00847  -0.00049
  50        9D-2       -0.00043   0.00303   0.00048  -0.00063  -0.00469
  51 3   O  1S          0.26370  -0.03196  -0.14563  -0.10293  -0.06167
  52        2S         -0.19414   0.04293   0.08126  -0.03043  -0.07140
  53        3S         -0.22812   0.07619   0.08384   0.01792  -0.06643
  54        4S         -0.04151   0.05072   0.00407   0.06400   0.00798
  55        5PX         0.03368   0.25105   0.00628   0.07205   0.15560
  56        5PY         0.07803   0.09771  -0.16803   0.24428  -0.03488
  57        5PZ         0.11487   0.27145  -0.08269  -0.04687  -0.12265
  58        6PX         0.02455   0.15316   0.01646   0.01439   0.10345
  59        6PY         0.04886   0.04994  -0.10115   0.12563  -0.04213
  60        6PZ         0.09355   0.19224  -0.06902  -0.01869  -0.06971
  61        7PX         0.01299   0.04282   0.00752  -0.01913   0.02397
  62        7PY         0.01435   0.01087  -0.02813   0.02454  -0.01775
  63        7PZ         0.03737   0.06698  -0.02720  -0.00788  -0.00899
  64        8D 0        0.00332   0.00565  -0.00385   0.00617  -0.00091
  65        8D+1        0.00047  -0.00095   0.00056   0.00185   0.00495
  66        8D-1        0.00183  -0.00567  -0.00111   0.00256   0.00533
  67        8D+2        0.00356  -0.00223  -0.00439   0.00394  -0.00269
  68        8D-2       -0.00342  -0.00623   0.00336  -0.00790  -0.00579
  69        9D 0        0.00898   0.00594  -0.00458   0.00148  -0.00398
  70        9D+1       -0.00573  -0.00398   0.00789  -0.00402   0.00497
  71        9D-1       -0.00758  -0.00802   0.00702  -0.00462  -0.00151
  72        9D+2        0.00232  -0.00285  -0.00342   0.00301  -0.01304
  73        9D-2       -0.00288  -0.00340  -0.00149   0.00593  -0.00289
  74 4   O  1S          0.23779  -0.01750   0.28366  -0.06356  -0.14299
  75        2S         -0.11487  -0.00178  -0.25308  -0.16503   0.03925
  76        3S         -0.16435   0.00290  -0.27793  -0.18960   0.11510
  77        4S         -0.04196  -0.01598  -0.05524  -0.04204   0.05434
  78        5PX        -0.01717   0.13395   0.04569  -0.04829   0.06883
  79        5PY        -0.09690  -0.18082  -0.00032  -0.09003   0.19732
  80        5PZ        -0.09913   0.07760  -0.10452   0.14114   0.18991
  81        6PX        -0.01544   0.09315  -0.00620  -0.05152   0.01376
  82        6PY        -0.05874  -0.11518  -0.01540  -0.06337   0.09558
  83        6PZ        -0.06292   0.06222  -0.07445   0.09620   0.11382
  84        7PX         0.00005   0.03198   0.00160  -0.00796   0.00382
  85        7PY        -0.01186  -0.02623   0.00580  -0.01495   0.02838
  86        7PZ        -0.01663   0.02932  -0.01460   0.02346   0.02840
  87        8D 0        0.00043  -0.00176   0.00445  -0.00185   0.00202
  88        8D+1        0.00080  -0.00194  -0.00112   0.00362  -0.00143
  89        8D-1        0.00241   0.00163   0.00023  -0.00305  -0.00632
  90        8D+2       -0.00198  -0.00412  -0.00191  -0.00276   0.00134
  91        8D-2        0.00017  -0.00197  -0.00163   0.00027  -0.00569
  92        9D 0        0.00484  -0.00585   0.00218  -0.00478  -0.00743
  93        9D+1       -0.00054   0.00142   0.00526   0.00913   0.00701
  94        9D-1        0.00380  -0.00274   0.00579  -0.00341  -0.00070
  95        9D+2       -0.00867  -0.00253  -0.00437  -0.00812   0.00478
  96        9D-2        0.00016  -0.00259   0.01329   0.00744   0.00948
  97 5   H  1S          0.04220   0.00619  -0.09306  -0.01388  -0.19152
  98        2S          0.02015   0.01736   0.01909   0.00316  -0.03948
  99        3S          0.00509  -0.00289   0.00229  -0.00291  -0.00058
 100        4PX         0.00100   0.00913  -0.00854  -0.00580  -0.01130
 101        4PY         0.00029  -0.00545  -0.01485  -0.00773  -0.01206
 102        4PZ        -0.00310   0.00313  -0.01087   0.00327  -0.00136
 103        5PX        -0.00587   0.00954   0.00807  -0.00990   0.01539
 104        5PY         0.00463  -0.00639  -0.00742  -0.00095  -0.00061
 105        5PZ        -0.00262  -0.00278  -0.00529  -0.00053   0.00190
 106 6   O  1S         -0.13507   0.04250  -0.41982  -0.07495  -0.27645
 107        2S          0.08393   0.00109   0.12191  -0.06815   0.15929
 108        3S          0.10766   0.02423   0.19419  -0.13405   0.19263
 109        4S          0.02654   0.03476   0.09173  -0.10197   0.05194
 110        5PX        -0.19353   0.31871   0.15747  -0.04978  -0.05015
 111        5PY        -0.16703  -0.09598   0.05978   0.31810  -0.21653
 112        5PZ         0.03091   0.00555   0.12980  -0.14793  -0.05277
 113        6PX        -0.13408   0.19711   0.09167  -0.00297  -0.03439
 114        6PY        -0.12491  -0.06581   0.05633   0.18918  -0.14140
 115        6PZ         0.01738  -0.02770   0.05684  -0.04877  -0.03866
 116        7PX        -0.04404   0.05848   0.01282   0.02077  -0.01095
 117        7PY        -0.04209  -0.02757   0.02379   0.05159  -0.03164
 118        7PZ        -0.00701  -0.01871   0.00429   0.00420  -0.00759
 119        8D 0       -0.00226   0.00199  -0.00201   0.00122   0.00593
 120        8D+1        0.00426  -0.00865  -0.00566   0.00392   0.00419
 121        8D-1        0.00394   0.00136  -0.00108  -0.00869   0.00460
 122        8D+2        0.00416  -0.00308  -0.00287  -0.00224   0.00439
 123        8D-2       -0.00070   0.00440   0.00112  -0.00459   0.00188
 124        9D 0       -0.00096   0.01454   0.00146  -0.00957   0.00733
 125        9D+1        0.00936  -0.00172  -0.00187  -0.00962   0.00430
 126        9D-1        0.01227   0.00219  -0.00847   0.00267   0.00794
 127        9D+2        0.01053   0.00227  -0.00621  -0.00456   0.00652
 128        9D-2        0.00244   0.00602  -0.00092   0.00044   0.00444
                          16        17        18        19        20
     Eigenvalues --     2.00000   2.00000   2.00000   2.00000   2.00000
   1 1   S  1S         -0.12616   0.45530   0.07778   0.16851  -0.09696
   2        2S          0.09496   0.03689   0.02159   0.17015  -0.12017
   3        3S          0.01217   0.15777  -0.02092  -0.02010   0.12694
   4        4S         -0.00817  -0.05143  -0.00656  -0.04652   0.04865
   5        5S         -0.01300  -0.03839   0.01698  -0.03481   0.02211
   6        6PX         0.04090   0.05250   0.06528  -0.12242  -0.15561
   7        6PY         0.02223  -0.07098   0.07236  -0.08032  -0.07096
   8        6PZ         0.18196  -0.10098   0.01138   0.10193   0.03709
   9        7PX        -0.05379  -0.05827  -0.14715   0.09750   0.09034
  10        7PY        -0.10163   0.07394  -0.02183   0.18926   0.00640
  11        7PZ        -0.07141   0.16837   0.01495  -0.02207  -0.00618
  12        8PX        -0.02999  -0.01044  -0.04310   0.04325  -0.00547
  13        8PY        -0.03514   0.01979  -0.03608   0.03802   0.03554
  14        8PZ         0.02406  -0.00194  -0.01390   0.00752  -0.01772
  15        9PX        -0.00050   0.00207  -0.00764   0.01685   0.00005
  16        9PY        -0.00373   0.01267   0.00381   0.01518  -0.01127
  17        9PZ         0.00340   0.00007   0.00288   0.01820  -0.01948
  18       10D 0       -0.00316  -0.02522  -0.02888   0.01813   0.01505
  19       10D+1       -0.01686  -0.01014  -0.03295  -0.00276   0.07450
  20       10D-1       -0.01343  -0.01949   0.00316  -0.07313   0.05090
  21       10D+2       -0.00762   0.02882   0.01124   0.01662  -0.02594
  22       10D-2        0.03699   0.01467   0.00888  -0.03673   0.07006
  23       11D 0        0.00313  -0.01033  -0.00084   0.01806  -0.01386
  24       11D+1       -0.00414   0.00130   0.00723   0.00652   0.00070
  25       11D-1       -0.01387   0.01886   0.00395   0.00167   0.01645
  26       11D+2        0.00693  -0.00828  -0.00779   0.00108   0.01494
  27       11D-2       -0.01376   0.02223   0.01300  -0.01172   0.00008
  28 2   O  1S         -0.04372  -0.13456   0.18335   0.18258   0.07050
  29        2S          0.04111   0.03600  -0.04384   0.06978   0.07325
  30        3S          0.04422   0.06151  -0.08056   0.11472   0.05719
  31        4S          0.00030   0.03029  -0.04669   0.08935  -0.02283
  32        5PX        -0.04926  -0.10030   0.04553  -0.08632  -0.10398
  33        5PY         0.06932  -0.15800  -0.05359  -0.01305   0.12801
  34        5PZ         0.05170   0.05739   0.05145  -0.28453   0.12586
  35        6PX        -0.03802  -0.05805   0.03461  -0.05219  -0.07728
  36        6PY         0.04240  -0.08931  -0.04285   0.02454   0.06393
  37        6PZ         0.02566   0.05863   0.02378  -0.15613   0.06572
  38        7PX        -0.01369  -0.01028   0.02168  -0.01889  -0.03098
  39        7PY         0.00875  -0.02928  -0.02186   0.01526   0.01913
  40        7PZ        -0.00169   0.01716  -0.00492  -0.03173   0.02033
  41        8D 0        0.00178   0.00424   0.00227  -0.00732   0.00149
  42        8D+1        0.00010  -0.00230  -0.00049  -0.00294  -0.00034
  43        8D-1        0.00421  -0.00030  -0.00001  -0.00569   0.00544
  44        8D+2       -0.00231   0.00185   0.00130  -0.00121  -0.00324
  45        8D-2        0.00029  -0.00368  -0.00136  -0.00050  -0.00042
  46        9D 0       -0.00030   0.00936   0.00050  -0.00699   0.00046
  47        9D+1       -0.00398   0.00129   0.00084  -0.00076  -0.00323
  48        9D-1        0.00002   0.00866  -0.00070   0.00612  -0.00144
  49        9D+2       -0.00232   0.00101   0.00286  -0.00825  -0.00026
  50        9D-2       -0.00293  -0.00067   0.00007   0.00196  -0.00356
  51 3   O  1S          0.36771   0.33222  -0.58666  -0.14438  -0.10915
  52        2S          0.23158   0.03546   0.04481  -0.03243  -0.07331
  53        3S          0.26183   0.02269   0.09167  -0.04979  -0.09520
  54        4S          0.07438  -0.00214   0.01855  -0.03016  -0.03702
  55        5PX         0.12659   0.04153   0.14005  -0.18096   0.03254
  56        5PY         0.00122  -0.07494   0.01677  -0.11228  -0.04515
  57        5PZ        -0.05883   0.04091   0.02604  -0.10189   0.26482
  58        6PX         0.08658   0.02793   0.09248  -0.11281   0.02757
  59        6PY        -0.00845  -0.04946  -0.00259  -0.05403  -0.01736
  60        6PZ        -0.03264   0.01788   0.02460  -0.07390   0.16831
  61        7PX         0.02064   0.01191   0.03555  -0.03057   0.01044
  62        7PY        -0.01363  -0.01859  -0.01357  -0.00613   0.00956
  63        7PZ         0.00193  -0.00730   0.01051  -0.03009   0.04705
  64        8D 0       -0.00131   0.00053   0.00136  -0.00443   0.00327
  65        8D+1        0.00182  -0.00187   0.00075  -0.00061  -0.00320
  66        8D-1        0.00133  -0.00407   0.00069   0.00025  -0.00777
  67        8D+2       -0.00252  -0.00158   0.00030  -0.00061  -0.00245
  68        8D-2       -0.00099   0.00087  -0.00314   0.00657   0.00049
  69        9D 0       -0.00150  -0.00101   0.00055  -0.00064   0.00385
  70        9D+1        0.00217  -0.00065  -0.00078   0.00066  -0.00298
  71        9D-1       -0.00000  -0.00253  -0.00356   0.00480  -0.00477
  72        9D+2       -0.00615  -0.00136  -0.00412   0.00553   0.00021
  73        9D-2       -0.00217   0.00162  -0.00309   0.00096  -0.00249
  74 4   O  1S         -0.22892  -0.12409  -0.33400  -0.50182  -0.16693
  75        2S         -0.16725   0.08341  -0.00778  -0.00814  -0.07062
  76        3S         -0.16654   0.06609  -0.02703   0.02599  -0.07851
  77        4S         -0.04066  -0.00084  -0.02613   0.04266  -0.04501
  78        5PX         0.00673   0.07628   0.02823   0.02738  -0.17299
  79        5PY         0.00475  -0.16967  -0.08054  -0.03922   0.19646
  80        5PZ        -0.02824  -0.10678  -0.31106   0.09140  -0.05229
  81        6PX        -0.01653   0.08942   0.04006   0.01894  -0.11850
  82        6PY        -0.00727  -0.09150  -0.03095  -0.03570   0.13231
  83        6PZ        -0.02540  -0.06389  -0.20482   0.05776  -0.03486
  84        7PX        -0.00718   0.01105   0.00763   0.00696  -0.03992
  85        7PY         0.01168  -0.01775   0.00128  -0.02754   0.04759
  86        7PZ        -0.00431  -0.01933  -0.05917   0.01341  -0.00148
  87        8D 0        0.00214  -0.00402   0.00073  -0.00029   0.00332
  88        8D+1       -0.00021  -0.00088   0.00022  -0.00116   0.00190
  89        8D-1       -0.00047   0.00535   0.00732  -0.00181  -0.00065
  90        8D+2       -0.00215  -0.00097  -0.00138  -0.00001   0.00294
  91        8D-2       -0.00279  -0.00201  -0.00109   0.00116   0.00292
  92        9D 0        0.00038  -0.00082   0.00929  -0.00258   0.00226
  93        9D+1        0.00255  -0.00742  -0.00782  -0.00050   0.00223
  94        9D-1        0.00479   0.00113   0.00572  -0.00111  -0.00045
  95        9D+2       -0.00435   0.00298  -0.00227  -0.00017   0.00948
  96        9D-2        0.00634  -0.01922  -0.00990   0.00251   0.00849
  97 5   H  1S         -0.06161   0.12114   0.10301  -0.01183  -0.01545
  98        2S          0.01557   0.02572   0.02163  -0.02375   0.02392
  99        3S         -0.00076   0.00300   0.00082   0.00353  -0.00598
 100        4PX        -0.00504   0.01542   0.01152  -0.00118  -0.00848
 101        4PY        -0.00885   0.00702   0.00958  -0.00299   0.00287
 102        4PZ        -0.00537   0.00189  -0.00678   0.00298  -0.00561
 103        5PX         0.00862   0.00565  -0.00176   0.00006  -0.00182
 104        5PY        -0.00312  -0.00236   0.00155  -0.00422   0.00380
 105        5PZ        -0.00231   0.00084  -0.00717   0.00311  -0.00649
 106 6   O  1S          0.35359  -0.11867  -0.06820   0.18304   0.27188
 107        2S         -0.08626   0.16668  -0.07249   0.03509   0.15880
 108        3S         -0.11836   0.21197  -0.05850   0.01804   0.17545
 109        4S         -0.01512   0.05450   0.01226  -0.01787   0.05475
 110        5PX        -0.12746  -0.02988  -0.17000   0.11576  -0.03107
 111        5PY        -0.11646   0.08186  -0.07052  -0.06083   0.16379
 112        5PZ         0.00728   0.02160   0.11415  -0.11412   0.07470
 113        6PX        -0.08617  -0.02596  -0.12730   0.08877  -0.03370
 114        6PY        -0.07799   0.05881  -0.03785  -0.05086   0.10393
 115        6PZ         0.00494   0.00903   0.06590  -0.07064   0.05160
 116        7PX        -0.02898  -0.00258  -0.04204   0.02602  -0.02555
 117        7PY        -0.01916   0.01059  -0.00821  -0.02671   0.03278
 118        7PZ         0.00318   0.00330   0.01473  -0.02989   0.02212
 119        8D 0       -0.00063   0.00055  -0.00456   0.00245   0.00007
 120        8D+1        0.00250   0.00468   0.00315  -0.00386   0.00181
 121        8D-1        0.00447  -0.00581   0.00388  -0.00022  -0.00686
 122        8D+2        0.00345  -0.00026   0.00320  -0.00139  -0.00307
 123        8D-2        0.00102  -0.00343  -0.00057   0.00151  -0.00253
 124        9D 0       -0.00003  -0.00333  -0.00724   0.00686  -0.00555
 125        9D+1        0.00625   0.00421   0.01072  -0.00945   0.00629
 126        9D-1        0.00556  -0.00553   0.00158   0.00025  -0.00258
 127        9D+2        0.00556  -0.00025   0.00563  -0.00318   0.00111
 128        9D-2        0.00175  -0.00571  -0.00392   0.00498  -0.00417
                          21        22        23        24        25
     Eigenvalues --     2.00000   2.00000   2.00000   2.00000   2.00000
   1 1   S  1S          0.42286  -0.17554   0.25553   0.24515   0.61093
   2        2S          0.30099  -0.12076   0.24062  -0.15877  -0.82567
   3        3S         -0.06582   0.00761   0.02297   0.03235   0.02282
   4        4S          0.00386  -0.03444  -0.00210   0.06137   0.03410
   5        5S          0.00144  -0.03674   0.00417   0.06319  -0.01179
   6        6PX        -0.01037   0.05127   0.01393   0.06290  -0.03296
   7        6PY        -0.10621   0.08880   0.06439   0.03057   0.11170
   8        6PZ         0.03937   0.02938  -0.02423  -0.01071   0.07687
   9        7PX         0.08094  -0.04453  -0.04148  -0.11481   0.05991
  10        7PY         0.06167  -0.01958  -0.06970   0.04386  -0.02474
  11        7PZ        -0.18156  -0.03967   0.00067  -0.15945   0.00452
  12        8PX         0.02541  -0.00137  -0.02894  -0.06174  -0.00920
  13        8PY         0.02023  -0.00489  -0.03085  -0.01346   0.00899
  14        8PZ        -0.02945  -0.00647   0.01781  -0.01229   0.00612
  15        9PX        -0.00484  -0.00642   0.00309   0.00080  -0.00222
  16        9PY        -0.00674   0.01041  -0.00209  -0.00559  -0.00063
  17        9PZ        -0.01659  -0.01206   0.00914  -0.01213   0.00654
  18       10D 0        0.02148   0.03492  -0.00356   0.04559   0.00634
  19       10D+1       -0.03793  -0.07724   0.02925   0.01468   0.00523
  20       10D-1        0.06155   0.03389  -0.03654   0.00176  -0.01131
  21       10D+2       -0.04568   0.02924   0.00118  -0.00975  -0.00082
  22       10D-2        0.01570   0.01145   0.00234   0.09120  -0.02225
  23       11D 0        0.01133   0.01666  -0.00243   0.01894  -0.00717
  24       11D+1       -0.00106  -0.00802   0.00121   0.01085  -0.01029
  25       11D-1       -0.01097  -0.00719  -0.00002   0.00324   0.00028
  26       11D+2        0.00266   0.00583   0.00502   0.01663   0.00797
  27       11D-2       -0.01579   0.00183  -0.00415  -0.00278  -0.01204
  28 2   O  1S         -0.01749   0.09542   0.06337   0.00711   0.02320
  29        2S         -0.00104   0.04396   0.00510  -0.03942   0.01383
  30        3S         -0.01348   0.04746  -0.00352  -0.08244   0.02582
  31        4S         -0.02142   0.00950  -0.00117  -0.06328   0.01686
  32        5PX         0.31643   0.18083  -0.15135  -0.23000   0.07523
  33        5PY         0.01811  -0.05891   0.03106   0.26935  -0.00985
  34        5PZ        -0.00373   0.02441   0.04960   0.07316  -0.03076
  35        6PX         0.21154   0.12499  -0.10578  -0.16909   0.05555
  36        6PY        -0.01041  -0.04975   0.02129   0.15444  -0.00168
  37        6PZ        -0.01702   0.02257   0.03082   0.02870  -0.01517
  38        7PX         0.06485   0.04276  -0.03569  -0.05933   0.01498
  39        7PY        -0.00508  -0.02467   0.00457   0.03245  -0.00056
  40        7PZ         0.00614   0.01215   0.00353   0.00527  -0.00690
  41        8D 0       -0.00390  -0.00012   0.00220  -0.00126  -0.00068
  42        8D+1        0.00546   0.00278  -0.00188  -0.00490   0.00221
  43        8D-1       -0.00126   0.00075   0.00241   0.00665   0.00052
  44        8D+2        0.00176   0.00155  -0.00202  -0.00837   0.00044
  45        8D-2        0.00681   0.00404  -0.00262  -0.00183   0.00204
  46        9D 0       -0.00626   0.00661   0.00220  -0.00175   0.00017
  47        9D+1        0.00738   0.00606  -0.00595  -0.01338   0.00513
  48        9D-1       -0.01025  -0.00106   0.00195   0.00099   0.00176
  49        9D+2        0.00761   0.00742  -0.00302  -0.00733  -0.00017
  50        9D-2        0.00759   0.00505  -0.00527  -0.01061   0.00494
  51 3   O  1S          0.11981  -0.11249  -0.32858  -0.08975  -0.03199
  52        2S         -0.00931  -0.04909   0.07279   0.05970   0.01776
  53        3S         -0.04152  -0.03912   0.11567   0.07272   0.02656
  54        4S         -0.03376   0.00587   0.04309   0.01526   0.00671
  55        5PX        -0.02201   0.09099  -0.02930  -0.10101  -0.00419
  56        5PY        -0.04861  -0.13024   0.04835  -0.05634  -0.00884
  57        5PZ         0.06268  -0.15629  -0.09459  -0.03858  -0.02985
  58        6PX        -0.00039   0.05575  -0.02729  -0.06691  -0.00339
  59        6PY        -0.01222  -0.09279   0.02024  -0.02394  -0.01156
  60        6PZ         0.04079  -0.10046  -0.06137  -0.03013  -0.01658
  61        7PX         0.00904   0.01574  -0.01533  -0.02477   0.00063
  62        7PY         0.00749  -0.03011  -0.00179  -0.00489   0.00232
  63        7PZ         0.01887  -0.02563  -0.01601   0.00222  -0.00818
  64        8D 0       -0.00087  -0.00275  -0.00115  -0.00275  -0.00124
  65        8D+1       -0.00075   0.00316   0.00114  -0.00006  -0.00004
  66        8D-1       -0.00049   0.00316   0.00228   0.00075  -0.00041
  67        8D+2       -0.00174  -0.00474   0.00155  -0.00040  -0.00130
  68        8D-2        0.00175  -0.00032   0.00043   0.00585   0.00101
  69        9D 0        0.00370  -0.00406  -0.00375  -0.00220  -0.00117
  70        9D+1        0.00074   0.00323   0.00132  -0.00060   0.00033
  71        9D-1        0.00126   0.00206   0.00334   0.00662  -0.00265
  72        9D+2        0.00055  -0.00549   0.00084   0.00842  -0.00410
  73        9D-2       -0.00577   0.00188   0.00328   0.00472   0.00253
  74 4   O  1S          0.03493   0.06268   0.56431  -0.02740   0.14126
  75        2S          0.00489  -0.00536  -0.01911  -0.03107  -0.17783
  76        3S          0.01900  -0.00982  -0.06277  -0.08382  -0.17936
  77        4S          0.00676  -0.00059  -0.01759  -0.06480  -0.02319
  78        5PX        -0.08324   0.11321  -0.04401  -0.15800   0.04991
  79        5PY         0.13532  -0.25633   0.00054  -0.11500   0.02078
  80        5PZ        -0.02529   0.20183  -0.03891   0.24972  -0.06834
  81        6PX        -0.06234   0.08485  -0.02988  -0.09050   0.00257
  82        6PY         0.08242  -0.16821   0.01017  -0.05237  -0.00747
  83        6PZ        -0.02490   0.13507  -0.02183   0.18035  -0.05426
  84        7PX         0.00050   0.03010  -0.01342  -0.04361   0.00699
  85        7PY         0.01928  -0.03941   0.00410  -0.00191   0.00016
  86        7PZ        -0.01286   0.03064  -0.00139   0.06085  -0.01445
  87        8D 0        0.00224  -0.00577   0.00098  -0.00365   0.00271
  88        8D+1        0.00239   0.00060  -0.00025   0.00103  -0.00082
  89        8D-1       -0.00247  -0.00151   0.00143  -0.00157  -0.00073
  90        8D+2        0.00275  -0.00423  -0.00122  -0.00325   0.00005
  91        8D-2        0.00367  -0.00332   0.00051   0.00266  -0.00215
  92        9D 0        0.00584  -0.00625   0.00160  -0.00341  -0.00024
  93        9D+1        0.00064  -0.00107  -0.00057   0.00022   0.00294
  94        9D-1       -0.00007  -0.00263   0.00066  -0.00695   0.00586
  95        9D+2        0.00065  -0.00667  -0.00134  -0.00065  -0.00444
  96        9D-2        0.00802  -0.00928   0.00069  -0.00272   0.00794
  97 5   H  1S         -0.03333   0.02454   0.02529   0.09485  -0.09375
  98        2S         -0.00596   0.00997   0.00892   0.03691  -0.00740
  99        3S          0.00339   0.00632  -0.00254  -0.00858   0.00165
 100        4PX        -0.00877   0.00678   0.00152   0.00422  -0.01050
 101        4PY         0.00443  -0.00560   0.00025   0.00161  -0.01051
 102        4PZ        -0.00021   0.01165  -0.00220   0.01217  -0.00747
 103        5PX        -0.01186   0.00178   0.00354   0.00090  -0.00289
 104        5PY         0.00673  -0.00617  -0.00002  -0.00560  -0.00013
 105        5PZ         0.00176   0.01202  -0.00212   0.00951  -0.00318
 106 6   O  1S          0.09361   0.33484   0.50339  -0.25259  -0.01756
 107        2S         -0.07108   0.09309   0.00725  -0.05261   0.02224
 108        3S         -0.06620   0.10584  -0.02759  -0.03829   0.02313
 109        4S          0.02617   0.04128  -0.02185  -0.00884  -0.00033
 110        5PX        -0.06553  -0.03682   0.01126  -0.07764   0.01583
 111        5PY         0.07806   0.09585  -0.05099   0.06117   0.00053
 112        5PZ         0.25425   0.21935  -0.10793   0.15923  -0.07826
 113        6PX        -0.06018  -0.02879   0.01884  -0.05562   0.01461
 114        6PY         0.06825   0.07685  -0.04118   0.04055  -0.00078
 115        6PZ         0.15161   0.12664  -0.05793   0.09142  -0.04787
 116        7PX        -0.03374  -0.00194   0.00814  -0.01774   0.00515
 117        7PY         0.03114   0.02457  -0.00998   0.01261  -0.00032
 118        7PZ         0.04158   0.03528  -0.01669   0.02213  -0.00880
 119        8D 0       -0.00791  -0.00620   0.00313  -0.00769   0.00379
 120        8D+1       -0.00425  -0.00031   0.00136  -0.00076   0.00109
 121        8D-1        0.00260  -0.00025   0.00093   0.00149  -0.00165
 122        8D+2       -0.00127   0.00071   0.00115   0.00075  -0.00023
 123        8D-2       -0.00030  -0.00265   0.00105  -0.00099  -0.00013
 124        9D 0       -0.00727  -0.00107   0.00167  -0.00160   0.00369
 125        9D+1        0.00303   0.00171  -0.00250   0.00408  -0.00013
 126        9D-1       -0.00559  -0.00638   0.00430  -0.00053  -0.00157
 127        9D+2       -0.00274  -0.00236   0.00068   0.00293  -0.00181
 128        9D-2       -0.00469  -0.00410   0.00369  -0.00257   0.00143
                          26        27        28        29        30
     Eigenvalues --     0.00000   0.00000   0.00000   0.00000   0.00000
   1 1   S  1S          0.02035  -0.01620  -0.01381   0.01258   0.01586
   2        2S          0.03333   0.25247   0.08637   0.15013   0.08758
   3        3S          0.30383   0.15776  -0.09347   0.35381   0.32306
   4        4S          0.22342  -3.24789  -1.85269  -3.09723  -2.55198
   5        5S          2.28704  -7.96147   0.87804  -1.43959   3.35019
   6        6PX        -0.06196  -0.01996  -0.04666   0.00226   0.00793
   7        6PY         0.05490   0.00427  -0.05749   0.00102   0.00560
   8        6PZ         0.01739  -0.00388  -0.03855   0.01798  -0.00157
   9        7PX         0.38006   0.09371   0.34978  -0.13659   0.08365
  10        7PY        -0.30254  -0.01832   0.41626  -0.05664  -0.02910
  11        7PZ         0.02535   0.00809   0.37542  -0.10831  -0.01242
  12        8PX         1.18982  -0.26536  -0.03126   3.63975  -1.11428
  13        8PY        -0.18712  -1.17543   0.17127   3.29117   4.88880
  14        8PZ         0.64172   0.58030  -1.49248   1.96587  -0.02624
  15        9PX        -0.82650   3.98702   0.00947   0.13207   0.00367
  16        9PY        -0.42815  -0.70223  -0.00732  -0.62764   0.32608
  17        9PZ         0.86872   1.24656   0.54211  -1.12107   3.63659
  18       10D 0        0.04561   0.07893  -0.25381  -0.06781  -0.25285
  19       10D+1        0.20472  -0.08796   0.08131  -0.08282  -0.13301
  20       10D-1       -0.17641  -0.06902   0.03803  -0.24391  -0.11837
  21       10D+2       -0.37686  -0.04703   0.00672   0.04440   0.07718
  22       10D-2        0.21605  -0.02881   0.30493   0.04311   0.12570
  23       11D 0       -0.94832   0.56437  -0.07574   0.82206  -1.88281
  24       11D+1       -0.01488  -0.77862   0.72003  -0.64855  -0.91963
  25       11D-1       -0.92139   0.33517   1.36254  -2.23837   0.88495
  26       11D+2       -1.18165  -0.13781   1.96143  -1.39538  -0.23768
  27       11D-2        0.15226  -0.14615   1.69285  -1.03632  -0.22582
  28 2   O  1S          0.00008  -0.02327  -0.00180  -0.05502  -0.02185
  29        2S         -0.15526   0.11176  -0.68124  -0.79524  -0.29396
  30        3S          0.58917   0.02764   0.56232   3.60173   1.24974
  31        4S         -0.10226   2.59534  -1.74997   3.87203   2.21704
  32        5PX        -0.03241   0.04312  -0.15534   0.02294  -0.01644
  33        5PY        -0.13004   0.11530  -0.05381  -0.00923  -0.18066
  34        5PZ        -0.08074  -0.03014  -0.10695  -0.08153  -0.12240
  35        6PX        -0.18341  -0.04532   0.94542  -0.15088   0.52893
  36        6PY         0.46110   0.36741  -0.13010   1.06403   1.02141
  37        6PZ        -0.33207   0.49619   0.43977   1.29602   0.71237
  38        7PX         1.14722  -0.69835   0.14655  -0.19642  -0.04860
  39        7PY         0.39636   0.46141  -0.62983   1.23346   0.76759
  40        7PZ        -0.48614  -0.31698  -0.35999   1.43923  -1.14016
  41        8D 0       -0.02475  -0.00673   0.00881  -0.02915   0.05660
  42        8D+1       -0.13075  -0.05935  -0.10537   0.11227  -0.01938
  43        8D-1        0.03138   0.06408   0.18130   0.10671  -0.00877
  44        8D+2        0.02667  -0.06691   0.01109  -0.04414   0.10323
  45        8D-2       -0.11577  -0.04938  -0.01424   0.09792  -0.00694
  46        9D 0       -0.38081  -0.05553   0.16620   0.18855  -0.05309
  47        9D+1       -0.02815   0.07383   0.50447  -0.05054   0.09816
  48        9D-1        0.00833  -0.01127  -0.01123   0.42007  -0.00272
  49        9D+2       -0.21886  -0.08825   0.05315  -0.15979  -0.25688
  50        9D-2        0.26566   0.02939   0.29121  -0.09477   0.23640
  51 3   O  1S          0.04345  -0.03166  -0.00248   0.03378   0.00603
  52        2S         -0.16234  -0.19092   0.27495   0.18809   0.31895
  53        3S         -0.78590   0.99733  -0.30151  -1.55196  -1.04775
  54        4S         -0.73794   3.04941   0.20151  -0.38318  -3.01221
  55        5PX         0.01438  -0.20514   0.21687   0.00035   0.03899
  56        5PY         0.13728  -0.07846   0.03367   0.02538   0.08255
  57        5PZ        -0.00266  -0.06841   0.10929  -0.07222   0.05546
  58        6PX         0.54096  -0.07709  -1.07327   0.47059   0.54089
  59        6PY        -0.15960  -0.70719   0.26063   0.23381   0.00234
  60        6PZ        -0.31363   0.55363  -0.49268   0.30160  -0.79970
  61        7PX         0.50390  -1.66504  -0.39870   0.07266   0.00526
  62        7PY         0.33118  -0.11058  -0.03912   0.23283   0.85399
  63        7PZ         0.05543  -0.04312  -0.39203   0.45867  -1.84245
  64        8D 0       -0.06392   0.08321   0.01182  -0.02363   0.04258
  65        8D+1        0.04981  -0.06476  -0.03886  -0.02387  -0.05999
  66        8D-1        0.02991   0.04936  -0.10742  -0.05747  -0.09578
  67        8D+2        0.04736  -0.00779   0.02821  -0.03280   0.01072
  68        8D-2       -0.01104  -0.05613  -0.12122   0.05324  -0.04019
  69        9D 0        0.06517  -0.10197  -0.22852  -0.01498  -0.18809
  70        9D+1        0.15354   0.10391  -0.14278  -0.10926   0.52906
  71        9D-1        0.01857  -0.22709   0.40279  -0.26793   0.21267
  72        9D+2       -0.26607  -0.00902   0.38954  -0.08597  -0.30550
  73        9D-2       -0.16907   0.02810   0.41182   0.06854   0.09426
  74 4   O  1S         -0.02954   0.00731  -0.01623   0.02318   0.03915
  75        2S         -1.02851  -0.22601   0.03085   0.41070   0.61599
  76        3S          2.30677   0.07091   0.14050  -2.37515  -2.44655
  77        4S          1.41400   2.01207   0.35465 -11.38237  -4.09159
  78        5PX        -0.27489  -0.08373  -0.15784  -0.18544  -0.06534
  79        5PY         0.03476   0.03391  -0.23353   0.00328   0.05467
  80        5PZ        -0.00300   0.09947   0.02497   0.06412   0.02495
  81        6PX         0.51546   0.73037   0.76227   1.83763  -0.11717
  82        6PY        -0.79393   0.22199   0.55025   0.75822   0.49685
  83        6PZ        -0.09704  -0.45197  -0.13808   0.11871   0.66760
  84        7PX         0.76149   0.08019   0.81859   0.68534  -1.97859
  85        7PY        -0.22042   0.19614   0.04239   3.30674   0.36726
  86        7PZ        -0.30838  -0.58052  -0.23949   1.73087  -1.18238
  87        8D 0        0.06355  -0.09875  -0.09795  -0.03150  -0.02987
  88        8D+1        0.07358   0.06749   0.10001  -0.03033  -0.04193
  89        8D-1        0.01856   0.02294   0.05523  -0.08368  -0.12783
  90        8D+2       -0.13785   0.14494  -0.01763   0.17110   0.00606
  91        8D-2        0.24159  -0.10863   0.16476  -0.13685   0.11991
  92        9D 0       -0.11894   0.09135  -0.06801   0.15796   0.22311
  93        9D+1       -0.15587  -0.46582   0.01067  -0.20781  -0.04912
  94        9D-1        0.15707   0.13767  -0.24829   0.35803   0.05323
  95        9D+2        0.38418   0.05922   0.48573  -0.23500  -0.23081
  96        9D-2       -0.44898  -0.26374  -0.19403  -0.60415  -0.45900
  97 5   H  1S         -0.31520   0.43983  -0.11735   0.29568   0.81452
  98        2S         -0.72478   0.72638   0.30320  12.61101   1.00107
  99        3S         -0.03857   1.71315   0.34742   1.39214  -1.11297
 100        4PX        -0.08060   0.13958   0.08046   0.28996   0.06286
 101        4PY         0.03961   0.01231  -0.24454   0.39093   0.32156
 102        4PZ         0.01030   0.00417  -0.04202   0.21531   0.10939
[...]
                                                                                             X                                       
                                                                                             X                                       
 
 ***** Axes restored to original set *****
 -------------------------------------------------------------------
 Center     Atomic                   Forces (Hartrees/Bohr)
 Number     Number              X              Y              Z
 -------------------------------------------------------------------
      1       16          -0.000034102    0.000018637    0.000030838
      2        8           0.000041630   -0.000035673   -0.000017935
      3        8          -0.000014368   -0.000005630    0.000000068
      4        8          -0.000005502    0.000006232   -0.000024561
      5        1          -0.000004177    0.000005380   -0.000008177
      6        8           0.000016520    0.000011055    0.000019767
 -------------------------------------------------------------------
 Cartesian Forces:  Max     0.000041630 RMS     0.000020545
 Force constants in Cartesian coordinates: 
                1             2             3             4             5 
      1  0.812828D+00
      2 -0.519233D-02  0.785951D+00
      3  0.292241D-01  0.105683D+00  0.429021D+00
      4 -0.246289D+00  0.134524D+00  0.919379D-01  0.259195D+00
      5  0.133806D+00 -0.191271D+00 -0.746014D-01 -0.158499D+00  0.187312D+00
      6  0.940133D-01 -0.766981D-01 -0.134883D+00 -0.121012D+00  0.982117D-01
      7 -0.102690D+00 -0.811344D-01 -0.830075D-02  0.121372D-01  0.243447D-01
      8 -0.834719D-01 -0.422493D+00 -0.346482D-01 -0.887833D-03 -0.218281D-01
      9 -0.741964D-02 -0.348455D-01 -0.775008D-01  0.243361D-02 -0.178436D-01
     10 -0.665296D-01  0.117075D-01 -0.294868D-02  0.547395D-02 -0.650942D-03
     11  0.380801D-02 -0.669733D-01  0.206217D-01  0.389293D-02  0.129159D-01
     12  0.196857D-01 -0.220843D-02 -0.106533D+00  0.113549D-01  0.279599D-02
     13  0.171337D-02  0.338652D-02 -0.415371D-02 -0.409700D-02  0.153545D-03
     14  0.126329D-01 -0.110214D-01  0.569515D-02  0.415941D-03 -0.920659D-03
     15 -0.306599D-01  0.323959D-01 -0.626944D-03  0.309780D-02 -0.538431D-02
     16 -0.399033D+00 -0.632915D-01 -0.105759D+00 -0.264204D-01  0.846658D-03
     17 -0.615823D-01 -0.941927D-01 -0.227504D-01  0.205542D-01  0.137910D-01
     18 -0.104843D+00 -0.243271D-01 -0.109477D+00  0.121880D-01 -0.317840D-02
                6             7             8             9            10 
      6  0.130750D+00
      7  0.659237D-02  0.857913D-01
      8 -0.560402D-02  0.971063D-01  0.465967D+00
      9  0.125390D-01  0.100369D-01  0.345291D-01  0.547385D-01
     10  0.243765D-01  0.132854D-01  0.534898D-03  0.895203D-03  0.306480D+00
     11 -0.104006D-01 -0.189406D-02 -0.147552D-01  0.275032D-01 -0.267112D+00
     12 -0.277930D-01 -0.184970D-02  0.706426D-02 -0.676738D-04 -0.279296D-01
     13  0.385889D-02 -0.163790D-02 -0.411127D-02  0.270060D-02 -0.256338D+00
     14 -0.614592D-02 -0.155306D-02 -0.398672D-04  0.240250D-02  0.249147D+00
     15  0.389190D-02  0.282984D-02  0.153491D-02 -0.410526D-02  0.333676D-01
     16 -0.782873D-02 -0.688598D-02 -0.917021D-02 -0.864665D-02 -0.237156D-02
     17  0.636893D-03 -0.368694D-01 -0.685082D-02 -0.117457D-01  0.637402D-02
     18  0.154947D-01 -0.930865D-02 -0.287600D-02  0.143962D-01 -0.277609D-01
               11            12            13            14            15 
     11  0.308744D+00
     12 -0.229249D-01  0.178183D+00
     13  0.258599D+00  0.618930D-02  0.259433D+00
     14 -0.250691D+00  0.643570D-02 -0.257824D+00  0.262592D+00
     15 -0.209356D-01 -0.338307D-01 -0.795624D-02 -0.618927D-02  0.414655D-01
     16  0.270594D-02 -0.745060D-02  0.926867D-03 -0.281857D-02 -0.679065D-03
     17  0.107595D-01  0.883738D-02 -0.204189D-03  0.808545D-04 -0.142168D-02
     18  0.613616D-02 -0.995856D-02 -0.638838D-03 -0.219815D-02 -0.679446D-02
               16            17            18 
     16  0.433784D+00
     17  0.717277D-01  0.764121D-01
     18  0.130364D+00  0.264435D-01  0.963393D-01
 FormGI is forming the generalized inverse of G from B-inverse, IUseBI=4.
 Force constants in internal coordinates: 
                1             2             3             4             5 
      1  0.459431D+00
      2  0.124483D-01  0.492283D+00
      3  0.193740D-01  0.119197D-01  0.170154D+00
      4  0.124354D-01  0.145534D-01  0.119209D-01  0.492323D+00
      5 -0.568581D-02 -0.283995D-02  0.794043D-03 -0.285198D-02  0.518576D+00
      6  0.723109D-02  0.117272D-01 -0.175140D-01 -0.106974D-01  0.301471D-02
      7  0.307867D-01 -0.151111D-01  0.172874D-01 -0.151001D-01 -0.128321D-01
      8  0.720223D-02 -0.106993D-01 -0.174768D-01  0.117100D-01  0.301433D-02
      9 -0.164428D-01  0.946197D-02  0.284988D-01 -0.139328D-01  0.378302D-03
     10 -0.125471D-01  0.130795D-01 -0.192755D-01  0.130844D-01  0.272399D-02
     11 -0.164411D-01 -0.139248D-01  0.285247D-01  0.947569D-02  0.427436D-03
     12  0.668640D-02  0.442181D-02  0.302824D-01  0.445563D-02  0.206969D-01
     13 -0.232093D-04 -0.959616D-02  0.125864D-04  0.959741D-02  0.111671D-04
     14  0.140909D-01  0.751320D-03 -0.153695D-02 -0.134356D-01 -0.169471D-02
     15 -0.140960D-01  0.134305D-01  0.152077D-02 -0.743417D-03  0.169446D-02
                6             7             8             9            10 
      6  0.150181D+00
      7 -0.849785D-01  0.295670D+00
      8  0.901483D-02 -0.848941D-01  0.150125D+00
      9 -0.703918D-01  0.193361D-01 -0.713522D-01  0.265060D+00
     10  0.718934D-02 -0.736956D-01  0.719364D-02 -0.800558D-01  0.154604D+00
     11 -0.713483D-01  0.192922D-01 -0.703774D-01  0.191158D-01 -0.801164D-01
     12 -0.428622D-02 -0.376939D-01 -0.424443D-02  0.238754D-01  0.849830D-03
     13 -0.536958D-01  0.100009D-04  0.536968D-01 -0.273361D-01  0.160165D-04
     14  0.504004D-01  0.328467D-01  0.266333D-02  0.287541D-02 -0.517931D-01
     15 -0.267418D-02 -0.327954D-01 -0.504017D-01  0.359572D-01  0.518016D-01
               11            12            13            14            15 
     11  0.265149D+00
     12  0.240480D-01  0.147713D+00
     13  0.273106D-01  0.481327D-04  0.468475D-01
     14 -0.359955D-01 -0.108170D-01 -0.223069D-01  0.472358D-01
     15 -0.288965D-02  0.107912D-01 -0.222941D-01 -0.248824D-01  0.472141D-01
 Leave Link  716 at Sun Aug  2 03:13:00 2020, MaxMem=   524288000 cpu:               0.2 elap:               0.0
 (Enter /home/ubuntu/g16/l103.exe)

 GradGradGradGradGradGradGradGradGradGradGradGradGradGradGradGradGradGrad
 Berny optimization.
 Red2BG is reusing G-inverse.
 Internal  Forces:  Max     0.000057383 RMS     0.000021381
 Search for a local minimum.
 Step number   1 out of a maximum of    2
 All quantities printed in internal units (Hartrees-Bohrs-Radians)
 Second derivative matrix not updated -- analytic derivatives used.
 The second derivative matrix:
                          R1        R2        R3        R4        R5
           R1           0.45943
           R2           0.01245   0.49228
           R3           0.01937   0.01192   0.17015
           R4           0.01244   0.01455   0.01192   0.49232
           R5          -0.00569  -0.00284   0.00079  -0.00285   0.51858
           A1           0.00723   0.01173  -0.01751  -0.01070   0.00301
           A2           0.03079  -0.01511   0.01729  -0.01510  -0.01283
           A3           0.00720  -0.01070  -0.01748   0.01171   0.00301
           A4          -0.01644   0.00946   0.02850  -0.01393   0.00038
           A5          -0.01255   0.01308  -0.01928   0.01308   0.00272
           A6          -0.01644  -0.01392   0.02852   0.00948   0.00043
           A7           0.00669   0.00442   0.03028   0.00446   0.02070
           D1          -0.00002  -0.00960   0.00001   0.00960   0.00001
           D2           0.01409   0.00075  -0.00154  -0.01344  -0.00169
           D3          -0.01410   0.01343   0.00152  -0.00074   0.00169
                          A1        A2        A3        A4        A5
           A1           0.15018
           A2          -0.08498   0.29567
           A3           0.00901  -0.08489   0.15013
           A4          -0.07039   0.01934  -0.07135   0.26506
           A5           0.00719  -0.07370   0.00719  -0.08006   0.15460
           A6          -0.07135   0.01929  -0.07038   0.01912  -0.08012
           A7          -0.00429  -0.03769  -0.00424   0.02388   0.00085
           D1          -0.05370   0.00001   0.05370  -0.02734   0.00002
           D2           0.05040   0.03285   0.00266   0.00288  -0.05179
           D3          -0.00267  -0.03280  -0.05040   0.03596   0.05180
                          A6        A7        D1        D2        D3
           A6           0.26515
           A7           0.02405   0.14771
           D1           0.02731   0.00005   0.04685
           D2          -0.03600  -0.01082  -0.02231   0.04724
           D3          -0.00289   0.01079  -0.02229  -0.02488   0.04721
 ITU=  0
     Eigenvalues ---    0.00022   0.11541   0.16645   0.18695   0.20034
     Eigenvalues ---    0.26289   0.29190   0.46357   0.48368   0.48401
     Eigenvalues ---    0.52294   0.52421
 Angle between quadratic step and forces=  84.60 degrees.
 Linear search not attempted -- first point.
 Iteration  1 RMS(Cart)=  0.00057137 RMS(Int)=  0.00000054
 Iteration  2 RMS(Cart)=  0.00000045 RMS(Int)=  0.00000000
 ITry= 1 IFail=0 DXMaxC= 1.11D-03 DCOld= 1.00D+10 DXMaxT= 3.00D-01 DXLimC= 3.00D+00 Rises=F
 Variable       Old X    -DE/DX   Delta X   Delta X   Delta X     New X
                                 (Linear)    (Quad)   (Total)
    R1        2.85471  -0.00006   0.00000  -0.00013  -0.00013   2.85458
    R2        2.83110   0.00001   0.00000   0.00003   0.00003   2.83113
    R3        3.27936   0.00003   0.00000   0.00020   0.00020   3.27956
    R4        2.83102   0.00002   0.00000   0.00003   0.00003   2.83105
    R5        1.82818   0.00001   0.00000   0.00001   0.00001   1.82819
    A1        2.01029  -0.00001   0.00000  -0.00009  -0.00009   2.01019
    A2        1.77107   0.00001   0.00000   0.00004   0.00004   1.77110
    A3        2.01050  -0.00002   0.00000   0.00000   0.00000   2.01050
    A4        1.81336  -0.00000   0.00000   0.00003   0.00003   1.81339
    A5        2.00231   0.00001   0.00000   0.00007   0.00007   2.00238
    A6        1.81300   0.00002   0.00000  -0.00003  -0.00003   1.81297
    A7        1.77781   0.00002   0.00000   0.00007   0.00007   1.77788
    D1       -0.00257   0.00000   0.00000  -0.00165  -0.00165  -0.00423
    D2        2.08891  -0.00001   0.00000  -0.00173  -0.00173   2.08718
    D3       -2.09416   0.00001   0.00000  -0.00166  -0.00166  -2.09582
         Item               Value     Threshold  Converged?
 Maximum Force            0.000057     0.000450     YES
 RMS     Force            0.000021     0.000300     YES
 Maximum Displacement     0.001114     0.001800     YES
 RMS     Displacement     0.000571     0.001200     YES
 Predicted change in Energy=-1.139469D-08
 Optimization completed.
    -- Stationary point found.
                           ----------------------------
                           !   Optimized Parameters   !
                           ! (Angstroms and Degrees)  !
 --------------------------                            --------------------------
 ! Name  Definition              Value          Derivative Info.                !
 --------------------------------------------------------------------------------
 ! R1    R(1,2)                  1.5106         -DE/DX =   -0.0001              !
 ! R2    R(1,3)                  1.4982         -DE/DX =    0.0                 !
 ! R3    R(1,4)                  1.7354         -DE/DX =    0.0                 !
 ! R4    R(1,6)                  1.4981         -DE/DX =    0.0                 !
 ! R5    R(4,5)                  0.9674         -DE/DX =    0.0                 !
 ! A1    A(2,1,3)              115.1809         -DE/DX =    0.0                 !
 ! A2    A(2,1,4)              101.4747         -DE/DX =    0.0                 !
 ! A3    A(2,1,6)              115.1932         -DE/DX =    0.0                 !
 ! A4    A(3,1,4)              103.8979         -DE/DX =    0.0                 !
 ! A5    A(3,1,6)              114.7241         -DE/DX =    0.0                 !
 ! A6    A(4,1,6)              103.8775         -DE/DX =    0.0                 !
 ! A7    A(1,4,5)              101.8611         -DE/DX =    0.0                 !
 ! D1    D(2,1,4,5)             -0.1475         -DE/DX =    0.0                 !
 ! D2    D(3,1,4,5)            119.6856         -DE/DX =    0.0                 !
 ! D3    D(6,1,4,5)           -119.9865         -DE/DX =    0.0                 !
 --------------------------------------------------------------------------------
 GradGradGradGradGradGradGradGradGradGradGradGradGradGradGradGradGradGrad

 Leave Link  103 at Sun Aug  2 03:13:00 2020, MaxMem=   524288000 cpu:               0.1 elap:               0.0
 (Enter /home/ubuntu/g16/l9999.exe)

 ----------------------------------------------------------------------

 Electric dipole moment (input orientation):
 (Debye = 10**-18 statcoulomb cm , SI units = C m)
                  (au)            (Debye)         (10**-30 SI)
   Tot        0.892847D+00      0.226939D+01      0.756987D+01
   x         -0.351472D+00     -0.893353D+00     -0.297990D+01
   y          0.562285D+00      0.142919D+01      0.476725D+01
   z         -0.597894D+00     -0.151970D+01     -0.506916D+01

 Dipole polarizability, Alpha (input orientation).
 (esu units = cm**3 , SI units = C**2 m**2 J**-1)
 Alpha(0;0):
               (au)            (10**-24 esu)      (10**-40 SI)
   iso        0.450310D+02      0.667291D+01      0.742462D+01
   aniso      0.281810D+01      0.417599D+00      0.464642D+00
   xx         0.448691D+02      0.664891D+01      0.739791D+01
   yx        -0.777662D+00     -0.115238D+00     -0.128219D+00
   yy         0.455449D+02      0.674905D+01      0.750933D+01
   zx         0.904297D+00      0.134003D+00      0.149098D+00
   zy        -0.100882D+01     -0.149491D+00     -0.166331D+00
   zz         0.446792D+02      0.662078D+01      0.736661D+01

 ----------------------------------------------------------------------

 Dipole orientation:
    16          9.12064635         -2.59596912         -3.27101245
     8          7.06977845         -4.28219766         -2.22223239
     8          8.20577598         -0.25990161         -4.58284434
     8         10.50455085         -1.46465381         -0.52162709
     1          9.50190466         -2.28454022          0.76861737
     8         11.23244289         -3.94411726         -4.58914716

 Electric dipole moment (dipole orientation):
 (Debye = 10**-18 statcoulomb cm , SI units = C m)
                  (au)            (Debye)         (10**-30 SI)
   Tot        0.892847D+00      0.226939D+01      0.756987D+01
   x          0.000000D+00      0.000000D+00      0.000000D+00
   y          0.000000D+00      0.000000D+00      0.000000D+00
   z          0.892847D+00      0.226939D+01      0.756987D+01

 Dipole polarizability, Alpha (dipole orientation).
 (esu units = cm**3 , SI units = C**2 m**2 J**-1)
 Alpha(0;0):
               (au)            (10**-24 esu)      (10**-40 SI)
   iso        0.450310D+02      0.667291D+01      0.742462D+01
   aniso      0.281810D+01      0.417599D+00      0.464642D+00
   xx         0.441171D+02      0.653748D+01      0.727393D+01
   yx        -0.240766D+00     -0.356779D-01     -0.396970D-01
   yy         0.442109D+02      0.655137D+01      0.728939D+01
   zx        -0.444518D+00     -0.658708D-01     -0.732911D-01
   zy        -0.366137D+00     -0.542559D-01     -0.603678D-01
   zz         0.467652D+02      0.692988D+01      0.771054D+01

 ----------------------------------------------------------------------
 1\1\GINC-LC06-1-2\Freq\UB3LYP\Aug-CC-pVDZ\H1O4S1(1-)\UBUNTU\02-Aug-202
 0\0\\#P Geom=AllCheck Guess=TCheck SCRF=Check GenChk UB3LYP/Aug-CC-pVD
 Z Freq\\HSO4-_UB3LYP-aug-cc-pVDZ\\-1,1\S,5.2638521943,0.6739521821,0.1
 243118356\O,4.1933226462,1.5426800168,0.7418336424\O,4.9143769142,-0.7
 776599978,0.0012415674\O,5.2665930677,1.2424847487,-1.5152740745\H,4.5
 809058535,1.924494661,-1.4903917036\O,6.658159324,0.9445483892,0.60077
 87327\\Version=ES64L-G16RevA.03\State=1-A\HF=-699.7750224\S2=0.\S2-1=0
 .\S2A=0.\RMSD=1.392e-09\RMSF=2.055e-05\ZeroPoint=0.0253023\Thermal=0.0
 305739\Dipole=-0.351472,0.5622854,-0.5978943\DipoleDeriv=2.2949072,-0.
 0526735,0.076162,-0.0609646,2.3502611,-0.056641,0.0995585,-0.0801899,2
 .2095856,-1.0231846,0.2878115,0.268504,0.3199429,-0.8958468,-0.2140887
 ,0.1762108,-0.120706,-0.8124192,-0.690491,-0.1601924,-0.0157919,-0.158
 4455,-1.3485433,-0.0083232,-0.0247637,-0.0842301,-0.6041563,-0.5026761
 ,-0.0281114,-0.0919483,-0.0355851,-0.6549506,0.3681004,-0.0704783,0.34
 6431,-1.353081,0.2028684,0.0513223,0.0416484,0.0567017,0.2233276,-0.03
 44929,0.0263119,-0.0191365,0.2472148,-1.2814238,-0.0981565,-0.2785742,
 -0.1216494,-0.674248,-0.0545545,-0.2068393,-0.0421685,-0.6871439\Polar
 =44.8690673,-0.7776619,45.5448556,0.9042966,-1.0088153,44.6792135\Quad
 rupole=-1.1217643,0.0474842,1.0742801,-1.0516498,1.1654664,-2.1601136\
 PG=C01 [X(H1O4S1)]\NImag=0\\0.81282841,-0.00519233,0.78595120,0.029224
 05,0.10568319,0.42902085,-0.24628898,0.13452428,0.09193793,0.25919526,
 0.13380552,-0.19127055,-0.07460143,-0.15849950,0.18731232,0.09401328,-
 0.07669809,-0.13488268,-0.12101226,0.09821171,0.13075007,-0.10269004,-
 0.08113444,-0.00830075,0.01213720,0.02434472,0.00659237,0.08579131,-0.
 08347188,-0.42249333,-0.03464821,-0.00088783,-0.02182805,-0.00560402,0
 .09710629,0.46596731,-0.00741964,-0.03484549,-0.07750076,0.00243361,-0
 .01784357,0.01253900,0.01003688,0.03452906,0.05473849,-0.06652960,0.01
 170748,-0.00294868,0.00547395,-0.00065094,0.02437645,0.01328542,0.0005
 3490,0.00089520,0.30647981,0.00380801,-0.06697331,0.02062168,0.0038929
 3,0.01291592,-0.01040058,-0.00189406,-0.01475524,0.02750319,-0.2671122
 2,0.30874385,0.01968568,-0.00220843,-0.10653326,0.01135494,0.00279599,
 -0.02779297,-0.00184970,0.00706426,-0.00006767,-0.02792962,-0.02292489
 ,0.17818321,0.00171337,0.00338652,-0.00415371,-0.00409700,0.00015354,0
 .00385889,-0.00163790,-0.00411127,0.00270060,-0.25633802,0.25859941,0.
 00618930,0.25943268,0.01263294,-0.01102136,0.00569515,0.00041594,-0.00
 092066,-0.00614592,-0.00155306,-0.00003987,0.00240250,0.24914676,-0.25
 069074,0.00643570,-0.25782401,0.26259177,-0.03065990,0.03239591,-0.000
 62694,0.00309780,-0.00538431,0.00389190,0.00282984,0.00153491,-0.00410
 526,0.03336756,-0.02093556,-0.03383074,-0.00795624,-0.00618927,0.04146
 551,-0.39903316,-0.06329151,-0.10575885,-0.02642042,0.00084666,-0.0078
 2873,-0.00688598,-0.00917021,-0.00864665,-0.00237156,0.00270594,-0.007
 45060,0.00092687,-0.00281857,-0.00067906,0.43378426,-0.06158226,-0.094
 19265,-0.02275037,0.02055417,0.01379102,0.00063689,-0.03686945,-0.0068
 5082,-0.01174570,0.00637402,0.01075953,0.00883738,-0.00020419,0.000080
 85,-0.00142168,0.07172769,0.07641207,-0.10484347,-0.02432708,-0.109477
 21,0.01218798,-0.00317840,0.01549468,-0.00930865,-0.00287600,0.0143962
 1,-0.02776092,0.00613616,-0.00995856,-0.00063884,-0.00219815,-0.006794
 46,0.13036390,0.02644348,0.09633934\\0.00003410,-0.00001864,-0.0000308
 4,-0.00004163,0.00003567,0.00001794,0.00001437,0.00000563,-0.00000007,
 0.00000550,-0.00000623,0.00002456,0.00000418,-0.00000538,0.00000818,-0
 .00001652,-0.00001106,-0.00001977\\\@


 GETTING A SIMPLE ANSWER FROM A PROFESSOR IS LIKE
 GETTING A THIMBLE OF WATER FROM A FIRE HYDRANT.
     -- PROF. LEN SHAPIRO, NDSU
 Job cpu time:       0 days  0 hours  8 minutes 18.4 seconds.
 Elapsed time:       0 days  0 hours  1 minutes 11.7 seconds.
 File lengths (MBytes):  RWF=     32 Int=      0 D2E=      0 Chk=      3 Scr=      1
 Normal termination of Gaussian 16 at Sun Aug  2 03:13:00 2020.
