 Entering Gaussian System, Link 0=/home/ubuntu/g16/g16
 Input=NO3-_UB3LYP-aug-cc-pVDZ-Opt.gjf
 Output=NO3-_UB3LYP-aug-cc-pVDZ-Opt.log
 Initial command:
 /home/ubuntu/g16/l1.exe "/home/ubuntu/g16/Gau-18097.inp" -scrdir="/home/ubuntu/g16/"
 Entering Link 1 = /home/ubuntu/g16/l1.exe PID=     18099.
  
 Copyright (c) 1988,1990,1992,1993,1995,1998,2003,2009,2016,
            Gaussian, Inc.  All Rights Reserved.
  
 This is part of the Gaussian(R) 16 program.  It is based on
 the Gaussian(R) 09 system (copyright 2009, Gaussian, Inc.),
 the Gaussian(R) 03 system (copyright 2003, Gaussian, Inc.),
 the Gaussian(R) 98 system (copyright 1998, Gaussian, Inc.),
 the Gaussian(R) 94 system (copyright 1995, Gaussian, Inc.),
 the Gaussian 92(TM) system (copyright 1992, Gaussian, Inc.),
 the Gaussian 90(TM) system (copyright 1990, Gaussian, Inc.),
 the Gaussian 88(TM) system (copyright 1988, Gaussian, Inc.),
 the Gaussian 86(TM) system (copyright 1986, Carnegie Mellon
 University), and the Gaussian 82(TM) system (copyright 1983,
 Carnegie Mellon University). Gaussian is a federally registered
 trademark of Gaussian, Inc.
  
 This software contains proprietary and confidential information,
 including trade secrets, belonging to Gaussian, Inc.
  
 This software is provided under written license and may be
 used, copied, transmitted, or stored only in accord with that
 written license.
  
 The following legend is applicable only to US Government
 contracts under FAR:
  
                    RESTRICTED RIGHTS LEGEND
  
 Use, reproduction and disclosure by the US Government is
 subject to restrictions as set forth in subparagraphs (a)
 and (c) of the Commercial Computer Software - Restricted
 Rights clause in FAR 52.227-19.
  
 Gaussian, Inc.
 340 Quinnipiac St., Bldg. 40, Wallingford CT 06492
  
  
 ---------------------------------------------------------------
 Warning -- This program may not be used in any manner that
 competes with the business of Gaussian, Inc. or will provide
 assistance to any competitor of Gaussian, Inc.  The licensee
 of this program is prohibited from giving any competitor of
 Gaussian, Inc. access to this program.  By using this program,
 the user acknowledges that Gaussian, Inc. is engaged in the
 business of creating and licensing software in the field of
 computational chemistry and represents and warrants to the
 licensee that it is not a competitor of Gaussian, Inc. and that
 it will not use this program in any manner prohibited above.
 ---------------------------------------------------------------
  

 Cite this work as:
 Gaussian 16, Revision A.03,
 M. J. Frisch, G. W. Trucks, H. B. Schlegel, G. E. Scuseria, 
 M. A. Robb, J. R. Cheeseman, G. Scalmani, V. Barone, 
 G. A. Petersson, H. Nakatsuji, X. Li, M. Caricato, A. V. Marenich, 
 J. Bloino, B. G. Janesko, R. Gomperts, B. Mennucci, H. P. Hratchian, 
 J. V. Ortiz, A. F. Izmaylov, J. L. Sonnenberg, D. Williams-Young, 
 F. Ding, F. Lipparini, F. Egidi, J. Goings, B. Peng, A. Petrone, 
 T. Henderson, D. Ranasinghe, V. G. Zakrzewski, J. Gao, N. Rega, 
 G. Zheng, W. Liang, M. Hada, M. Ehara, K. Toyota, R. Fukuda, 
 J. Hasegawa, M. Ishida, T. Nakajima, Y. Honda, O. Kitao, H. Nakai, 
 T. Vreven, K. Throssell, J. A. Montgomery, Jr., J. E. Peralta, 
 F. Ogliaro, M. J. Bearpark, J. J. Heyd, E. N. Brothers, K. N. Kudin, 
 V. N. Staroverov, T. A. Keith, R. Kobayashi, J. Normand, 
 K. Raghavachari, A. P. Rendell, J. C. Burant, S. S. Iyengar, 
 J. Tomasi, M. Cossi, J. M. Millam, M. Klene, C. Adamo, R. Cammi, 
 J. W. Ochterski, R. L. Martin, K. Morokuma, O. Farkas, 
 J. B. Foresman, and D. J. Fox, Gaussian, Inc., Wallingford CT, 2016.
 
 ******************************************
 Gaussian 16:  ES64L-G16RevA.03 25-Dec-2016
                 2-Aug-2020 
 ******************************************
 %chk=NO3-_UB3LYP-aug-cc-pVDZ-Opt.chk
 %mem=500MW
 %nproc=7
 Will use up to    7 processors via shared memory.
 ----------------------------------------------------------------------
 #p opt=(maxcycles=777) freq ub3lyp/aug-cc-pVDZ pop=(Bonding,AllOrbital
 s,mk,no,nboread)
 ----------------------------------------------------------------------
 1/6=777,18=20,19=15,26=3,38=1/1,3;
 2/9=110,12=2,17=6,18=5,40=1/2;
 3/5=16,7=10,11=2,25=1,30=1,71=1,74=-5,116=2/1,2,3;
 4//1;
 5/5=2,38=5/2;
 6/7=2,8=2,9=2,10=2,15=8,20=1,22=-1,27=20,28=1,31=1,40=2,96=-1/1,2,7;
 7//1,2,3,16;
 1/6=777,18=20,19=15,26=3/3(2);
 2/9=110/2;
 99//99;
 2/9=110/2;
 3/5=16,7=10,11=2,25=1,30=1,71=1,74=-5,116=2/1,2,3;
 4/5=5,16=3,69=1/1;
 5/5=2,38=5/2;
 7//1,2,3,16;
 1/6=777,18=20,19=15,26=3/3(-5);
 2/9=110/2;
 6/7=2,8=2,9=2,10=2,15=8,19=2,20=1,22=-1,27=20,28=1,31=1,40=2,96=-1/1,2,7;
 99/9=1/99;
 Leave Link    1 at Sun Aug  2 03:26:30 2020, MaxMem=   524288000 cpu:               0.4 elap:               0.1
 (Enter /home/ubuntu/g16/l101.exe)
 -----------------------
 NO3-_UB3LYP-aug-cc-pVDZ
 -----------------------
 Symbolic Z-matrix:
 Charge = -1 Multiplicity = 1
 N                    -0.8044   -0.5602    0. 
 O                     0.3949   -0.5602    0. 
 O                    -1.4614    0.4432    0. 
 O                    -1.4512   -1.7566    0. 
 
 ITRead=  0  0  0  0
 MicOpt= -1 -1 -1 -1
 NAtoms=      4 NQM=        4 NQMF=       0 NMMI=      0 NMMIF=      0
                NMic=       0 NMicF=      0.
                    Isotopes and Nuclear Properties:
 (Nuclear quadrupole moments (NQMom) in fm**2, nuclear magnetic moments (NMagM)
  in nuclear magnetons)

  Atom         1           2           3           4
 IAtWgt=          14          16          16          16
 AtmWgt=  14.0030740  15.9949146  15.9949146  15.9949146
 NucSpn=           2           0           0           0
 AtZEff=  -0.0000000  -0.0000000  -0.0000000  -0.0000000
 NQMom=    2.0440000   0.0000000   0.0000000   0.0000000
 NMagM=    0.4037610   0.0000000   0.0000000   0.0000000
 AtZNuc=   7.0000000   8.0000000   8.0000000   8.0000000
 Leave Link  101 at Sun Aug  2 03:26:30 2020, MaxMem=   524288000 cpu:               0.7 elap:               0.1
 (Enter /home/ubuntu/g16/l103.exe)

 GradGradGradGradGradGradGradGradGradGradGradGradGradGradGradGradGradGrad
 Berny optimization.
 Initialization pass.
                           ----------------------------
                           !    Initial Parameters    !
                           ! (Angstroms and Degrees)  !
 --------------------------                            --------------------------
 ! Name  Definition              Value          Derivative Info.                !
 --------------------------------------------------------------------------------
 ! R1    R(1,2)                  1.1993         estimate D2E/DX2                !
 ! R2    R(1,3)                  1.1994         estimate D2E/DX2                !
 ! R3    R(1,4)                  1.36           estimate D2E/DX2                !
 ! A1    A(2,1,3)              123.2157         estimate D2E/DX2                !
 ! A2    A(2,1,4)              118.3966         estimate D2E/DX2                !
 ! A3    A(3,1,4)              118.3876         estimate D2E/DX2                !
 ! D1    D(2,1,4,3)            180.0            estimate D2E/DX2                !
 --------------------------------------------------------------------------------
 Trust Radius=3.00D-01 FncErr=1.00D-07 GrdErr=1.00D-06 EigMax=2.50D+02 EigMin=1.00D-04
 Number of steps in this run=    100 maximum allowed number of steps=    100.
 GradGradGradGradGradGradGradGradGradGradGradGradGradGradGradGradGradGrad

 Leave Link  103 at Sun Aug  2 03:26:30 2020, MaxMem=   524288000 cpu:               0.2 elap:               0.0
 (Enter /home/ubuntu/g16/l202.exe)
                          Input orientation:                          
 ---------------------------------------------------------------------
 Center     Atomic      Atomic             Coordinates (Angstroms)
 Number     Number       Type             X           Y           Z
 ---------------------------------------------------------------------
      1          7           0       -0.804400   -0.560200    0.000000
      2          8           0        0.394900   -0.560200    0.000000
      3          8           0       -1.461400    0.443200    0.000000
      4          8           0       -1.451200   -1.756600    0.000000
 ---------------------------------------------------------------------
                    Distance matrix (angstroms):
                    1          2          3          4
     1  N    0.000000
     2  O    1.199300   0.000000
     3  O    1.199358   2.110133   0.000000
     4  O    1.360045   2.199877   2.199824   0.000000
 Stoichiometry    NO3(1-)
 Framework group  CS[SG(NO3)]
 Deg. of freedom     5
 Full point group                 CS      NOp   2
 Largest Abelian subgroup         CS      NOp   2
 Largest concise Abelian subgroup C1      NOp   1
                         Standard orientation:                         
 ---------------------------------------------------------------------
 Center     Atomic      Atomic             Coordinates (Angstroms)
 Number     Number       Type             X           Y           Z
 ---------------------------------------------------------------------
      1          7           0        0.000000    0.056639    0.000000
      2          8           0       -1.054630    0.627669   -0.000000
      3          8           0        1.055502    0.626178    0.000000
      4          8           0       -0.000872   -1.303406   -0.000000
 ---------------------------------------------------------------------
 Rotational constants (GHZ):          14.1920658          12.7007545           6.7025303
 Leave Link  202 at Sun Aug  2 03:26:30 2020, MaxMem=   524288000 cpu:               0.1 elap:               0.0
 (Enter /home/ubuntu/g16/l301.exe)
 Standard basis: Aug-CC-pVDZ (5D, 7F)
 Ernie: Thresh=  0.10000D-02 Tol=  0.10000D-05 Strict=F.
 Ernie:  8 primitive shells out of 100 were deleted.
 There are    72 symmetry adapted cartesian basis functions of A'  symmetry.
 There are    28 symmetry adapted cartesian basis functions of A"  symmetry.
 There are    64 symmetry adapted basis functions of A'  symmetry.
 There are    28 symmetry adapted basis functions of A"  symmetry.
    92 basis functions,   172 primitive gaussians,   100 cartesian basis functions
    16 alpha electrons       16 beta electrons
       nuclear repulsion energy       118.0468709880 Hartrees.
 IExCor=  402 DFT=T Ex+Corr=B3LYP ExCW=0 ScaHFX=  0.200000
 ScaDFX=  0.800000  0.720000  1.000000  0.810000 ScalE2=  1.000000  1.000000
 IRadAn=      5 IRanWt=     -1 IRanGd=            0 ICorTp=0 IEmpDi=  4
 NAtoms=    4 NActive=    4 NUniq=    4 SFac= 1.00D+00 NAtFMM=   60 NAOKFM=F Big=F
 Integral buffers will be    131072 words long.
 Raffenetti 2 integral format.
 Two-electron integral symmetry is turned on.
 Leave Link  301 at Sun Aug  2 03:26:30 2020, MaxMem=   524288000 cpu:               0.2 elap:               0.0
 (Enter /home/ubuntu/g16/l302.exe)
 NPDir=0 NMtPBC=     1 NCelOv=     1 NCel=       1 NClECP=     1 NCelD=      1
         NCelK=      1 NCelE2=     1 NClLst=     1 CellRange=     0.0.
 One-electron integrals computed using PRISM.
 One-electron integral symmetry used in STVInt
 NBasis=    92 RedAO= T EigKep=  5.48D-04  NBF=    64    28
 NBsUse=    92 1.00D-06 EigRej= -1.00D+00 NBFU=    64    28
 Precomputing XC quadrature grid using
 IXCGrd= 4 IRadAn=           5 IRanWt=          -1 IRanGd=           0 AccXCQ= 0.00D+00.
 Generated NRdTot=       0 NPtTot=           0 NUsed=           0 NTot=          32
 NSgBfM=   100   100   100   100   100 MxSgAt=     4 MxSgA2=     4.
 Leave Link  302 at Sun Aug  2 03:26:30 2020, MaxMem=   524288000 cpu:               1.1 elap:               0.2
 (Enter /home/ubuntu/g16/l303.exe)
 DipDrv:  MaxL=1.
 Leave Link  303 at Sun Aug  2 03:26:30 2020, MaxMem=   524288000 cpu:               0.1 elap:               0.0
 (Enter /home/ubuntu/g16/l401.exe)
 ExpMin= 5.61D-02 ExpMax= 1.17D+04 ExpMxC= 4.01D+02 IAcc=3 IRadAn=         5 AccDes= 0.00D+00
 Harris functional with IExCor=  402 and IRadAn=       5 diagonalized for initial guess.
 HarFok:  IExCor=  402 AccDes= 0.00D+00 IRadAn=         5 IDoV= 1 UseB2=F ITyADJ=14
 ICtDFT=  3500011 ScaDFX=  1.000000  1.000000  1.000000  1.000000
 FoFCou: FMM=F IPFlag=           0 FMFlag=      100000 FMFlg1=           0
         NFxFlg=           0 DoJE=T BraDBF=F KetDBF=T FulRan=T
         wScrn=  0.000000 ICntrl=       500 IOpCl=  0 I1Cent=   200000004 NGrid=           0
         NMat0=    1 NMatS0=      1 NMatT0=    0 NMatD0=    1 NMtDS0=    0 NMtDT0=    0
 Petite list used in FoFCou.
 Harris En= -280.586104316378    
 JPrj=0 DoOrth=F DoCkMO=F.
 Initial guess orbital symmetries:
 Alpha Orbitals:
       Occupied  (A') (A') (A') (A') (A') (A') (A') (A') (A') (A')
                 (A") (A') (A') (A") (A") (A')
       Virtual   (A") (A') (A') (A') (A") (A') (A') (A') (A') (A")
                 (A") (A') (A') (A') (A") (A') (A') (A') (A') (A')
                 (A") (A') (A") (A') (A') (A") (A') (A') (A') (A')
                 (A") (A") (A') (A") (A') (A") (A") (A") (A') (A')
                 (A') (A') (A') (A') (A") (A') (A") (A") (A') (A')
                 (A') (A') (A') (A") (A") (A') (A') (A') (A') (A')
                 (A") (A") (A') (A") (A') (A') (A") (A') (A') (A')
                 (A") (A') (A") (A') (A') (A')
 Beta  Orbitals:
       Occupied  (A') (A') (A') (A') (A') (A') (A') (A') (A') (A')
                 (A") (A') (A') (A") (A") (A')
       Virtual   (A") (A') (A') (A') (A") (A') (A') (A') (A') (A")
                 (A") (A') (A') (A') (A") (A') (A') (A') (A') (A')
                 (A") (A') (A") (A') (A') (A") (A') (A') (A') (A')
                 (A") (A") (A') (A") (A') (A") (A") (A") (A') (A')
                 (A') (A') (A') (A') (A") (A') (A") (A") (A') (A')
                 (A') (A') (A') (A") (A") (A') (A') (A') (A') (A')
                 (A") (A") (A') (A") (A') (A') (A") (A') (A') (A')
                 (A") (A') (A") (A') (A') (A')
 The electronic state of the initial guess is 1-A'.
 Initial guess <Sx>= 0.0000 <Sy>= 0.0000 <Sz>= 0.0000 <S**2>=-0.0000 S=-0.0000
 Leave Link  401 at Sun Aug  2 03:26:30 2020, MaxMem=   524288000 cpu:               2.1 elap:               0.3
 (Enter /home/ubuntu/g16/l502.exe)
 Keep R1 and R2 ints in memory in symmetry-blocked form, NReq=15882689.
 FoFCou: FMM=F IPFlag=           0 FMFlag=           0 FMFlg1=           0
         NFxFlg=           0 DoJE=F BraDBF=F KetDBF=F FulRan=T
         wScrn=  0.000000 ICntrl=       600 IOpCl=  0 I1Cent=           0 NGrid=           0
         NMat0=    1 NMatS0=   4278 NMatT0=    0 NMatD0=    1 NMtDS0=    0 NMtDT0=    0
 Petite list used in FoFCou.
 UHF open shell SCF:
 Using DIIS extrapolation, IDIIS=  1040.
 NGot=   524288000 LenX=   514860562 LenY=   514850121
 Requested convergence on RMS density matrix=1.00D-08 within 128 cycles.
 Requested convergence on MAX density matrix=1.00D-06.
 Requested convergence on             energy=1.00D-06.
 No special actions if energy rises.
 Integral accuracy reduced to 1.0D-05 until final iterations.

 Cycle   1  Pass 0  IDiag  1:
 E= -280.189397747524    
 DIIS: error= 4.96D-02 at cycle   1 NSaved=   1.
 NSaved= 1 IEnMin= 1 EnMin= -280.189397747524     IErMin= 1 ErrMin= 4.96D-02
 ErrMax= 4.96D-02  0.00D+00 EMaxC= 1.00D-01 BMatC= 1.23D+00 BMatP= 1.23D+00
 IDIUse=3 WtCom= 5.04D-01 WtEn= 4.96D-01
 Coeff-Com:  0.100D+01
 Coeff-En:   0.100D+01
 Coeff:      0.100D+01
 Gap=     0.033 Goal=   None    Shift=    0.000
 Gap=     0.033 Goal=   None    Shift=    0.000
 GapD=    0.033 DampG=0.250 DampE=0.500 DampFc=0.2500 IDamp=-1.
 Damping current iteration by 2.50D-01
 RMSDP=1.26D-02 MaxDP=2.56D-01              OVMax= 3.27D-01

 Cycle   2  Pass 0  IDiag  1:
 E= -280.266661074057     Delta-E=       -0.077263326533 Rises=F Damp=T
 DIIS: error= 1.91D-02 at cycle   2 NSaved=   2.
 NSaved= 2 IEnMin= 2 EnMin= -280.266661074057     IErMin= 2 ErrMin= 1.91D-02
 ErrMax= 1.91D-02  0.00D+00 EMaxC= 1.00D-01 BMatC= 1.33D-01 BMatP= 1.23D+00
 IDIUse=3 WtCom= 8.09D-01 WtEn= 1.91D-01
 Coeff-Com: -0.377D+00 0.138D+01
 Coeff-En:   0.000D+00 0.100D+01
 Coeff:     -0.305D+00 0.130D+01
 Gap=     0.199 Goal=   None    Shift=    0.000
 Gap=     0.199 Goal=   None    Shift=    0.000
 RMSDP=3.17D-03 MaxDP=6.08D-02 DE=-7.73D-02 OVMax= 3.03D-01

 Cycle   3  Pass 0  IDiag  1:
 E= -280.367553639841     Delta-E=       -0.100892565784 Rises=F Damp=F
 DIIS: error= 2.24D-02 at cycle   3 NSaved=   3.
 NSaved= 3 IEnMin= 3 EnMin= -280.367553639841     IErMin= 2 ErrMin= 1.91D-02
 ErrMax= 2.24D-02  0.00D+00 EMaxC= 1.00D-01 BMatC= 1.92D-01 BMatP= 1.33D-01
 IDIUse=2 WtCom= 0.00D+00 WtEn= 1.00D+00
 Coeff-En:   0.000D+00 0.000D+00 0.100D+01
 Coeff:      0.000D+00 0.000D+00 0.100D+01
 Gap=     0.241 Goal=   None    Shift=    0.000
 Gap=     0.241 Goal=   None    Shift=    0.000
 RMSDP=6.43D-03 MaxDP=1.48D-01 DE=-1.01D-01 OVMax= 3.28D-01

 Cycle   4  Pass 0  IDiag  1:
 E= -280.124105174951     Delta-E=        0.243448464890 Rises=F Damp=F
 DIIS: error= 6.81D-02 at cycle   4 NSaved=   4.
 NSaved= 4 IEnMin= 3 EnMin= -280.367553639841     IErMin= 2 ErrMin= 1.91D-02
 ErrMax= 6.81D-02  0.00D+00 EMaxC= 1.00D-01 BMatC= 1.39D+00 BMatP= 1.33D-01
 IDIUse=2 WtCom= 0.00D+00 WtEn= 1.00D+00
 Coeff-En:   0.000D+00 0.000D+00 0.824D+00 0.176D+00
 Coeff:      0.000D+00 0.000D+00 0.824D+00 0.176D+00
 Gap=     0.190 Goal=   None    Shift=    0.000
 Gap=     0.190 Goal=   None    Shift=    0.000
 RMSDP=3.68D-03 MaxDP=9.24D-02 DE= 2.43D-01 OVMax= 2.00D-01

 Cycle   5  Pass 0  IDiag  1:
 E= -280.381181566053     Delta-E=       -0.257076391102 Rises=F Damp=F
 DIIS: error= 1.75D-02 at cycle   5 NSaved=   5.
 NSaved= 5 IEnMin= 5 EnMin= -280.381181566053     IErMin= 5 ErrMin= 1.75D-02
 ErrMax= 1.75D-02  0.00D+00 EMaxC= 1.00D-01 BMatC= 1.29D-01 BMatP= 1.33D-01
 IDIUse=3 WtCom= 8.25D-01 WtEn= 1.75D-01
 Coeff-Com: -0.101D+00 0.178D+00 0.330D+00-0.982D-01 0.691D+00
 Coeff-En:   0.000D+00 0.000D+00 0.420D+00 0.000D+00 0.580D+00
 Coeff:     -0.831D-01 0.147D+00 0.345D+00-0.810D-01 0.672D+00
 Gap=     0.211 Goal=   None    Shift=    0.000
 Gap=     0.211 Goal=   None    Shift=    0.000
 RMSDP=1.37D-03 MaxDP=2.69D-02 DE=-2.57D-01 OVMax= 6.64D-02

 Cycle   6  Pass 0  IDiag  1:
 E= -280.405420547198     Delta-E=       -0.024238981146 Rises=F Damp=F
 DIIS: error= 7.99D-04 at cycle   6 NSaved=   6.
 NSaved= 6 IEnMin= 6 EnMin= -280.405420547198     IErMin= 6 ErrMin= 7.99D-04
 ErrMax= 7.99D-04  0.00D+00 EMaxC= 1.00D-01 BMatC= 2.51D-04 BMatP= 1.29D-01
 IDIUse=3 WtCom= 9.92D-01 WtEn= 7.99D-03
 Coeff-Com: -0.181D-01 0.168D-01 0.110D+00-0.298D-01 0.252D+00 0.669D+00
 Coeff-En:   0.000D+00 0.000D+00 0.000D+00 0.000D+00 0.000D+00 0.100D+01
 Coeff:     -0.179D-01 0.166D-01 0.109D+00-0.295D-01 0.250D+00 0.672D+00
 Gap=     0.207 Goal=   None    Shift=    0.000
 Gap=     0.207 Goal=   None    Shift=    0.000
 RMSDP=8.06D-05 MaxDP=1.95D-03 DE=-2.42D-02 OVMax= 2.58D-03

 Cycle   7  Pass 0  IDiag  1:
 E= -280.405463492665     Delta-E=       -0.000042945467 Rises=F Damp=F
 DIIS: error= 2.34D-04 at cycle   7 NSaved=   7.
 NSaved= 7 IEnMin= 7 EnMin= -280.405463492665     IErMin= 7 ErrMin= 2.34D-04
 ErrMax= 2.34D-04  0.00D+00 EMaxC= 1.00D-01 BMatC= 2.08D-05 BMatP= 2.51D-04
 IDIUse=3 WtCom= 9.98D-01 WtEn= 2.34D-03
 Coeff-Com:  0.545D-03-0.408D-02 0.703D-02-0.421D-02 0.275D-01 0.296D+00
 Coeff-Com:  0.677D+00
 Coeff-En:   0.000D+00 0.000D+00 0.000D+00 0.000D+00 0.000D+00 0.534D-01
 Coeff-En:   0.947D+00
 Coeff:      0.544D-03-0.407D-02 0.701D-02-0.420D-02 0.274D-01 0.295D+00
 Coeff:      0.678D+00
 Gap=     0.207 Goal=   None    Shift=    0.000
 Gap=     0.207 Goal=   None    Shift=    0.000
 RMSDP=2.35D-05 MaxDP=4.72D-04 DE=-4.29D-05 OVMax= 9.24D-04

 Cycle   8  Pass 0  IDiag  1:
 E= -280.405468040389     Delta-E=       -0.000004547724 Rises=F Damp=F
 DIIS: error= 1.10D-05 at cycle   8 NSaved=   8.
 NSaved= 8 IEnMin= 8 EnMin= -280.405468040389     IErMin= 8 ErrMin= 1.10D-05
 ErrMax= 1.10D-05  0.00D+00 EMaxC= 1.00D-01 BMatC= 6.58D-08 BMatP= 2.08D-05
 IDIUse=1 WtCom= 1.00D+00 WtEn= 0.00D+00
 Coeff-Com:  0.340D-03-0.531D-03-0.203D-02 0.102D-03-0.265D-02 0.210D-01
 Coeff-Com:  0.830D-01 0.901D+00
 Coeff:      0.340D-03-0.531D-03-0.203D-02 0.102D-03-0.265D-02 0.210D-01
 Coeff:      0.830D-01 0.901D+00
 Gap=     0.207 Goal=   None    Shift=    0.000
 Gap=     0.207 Goal=   None    Shift=    0.000
 RMSDP=2.82D-06 MaxDP=6.06D-05 DE=-4.55D-06 OVMax= 1.47D-04

 Initial convergence to 1.0D-05 achieved.  Increase integral accuracy.
 Cycle   9  Pass 1  IDiag  1:
 E= -280.405456265954     Delta-E=        0.000011774435 Rises=F Damp=F
 DIIS: error= 1.45D-05 at cycle   1 NSaved=   1.
 NSaved= 1 IEnMin= 1 EnMin= -280.405456265954     IErMin= 1 ErrMin= 1.45D-05
 ErrMax= 1.45D-05  0.00D+00 EMaxC= 1.00D-01 BMatC= 1.01D-07 BMatP= 1.01D-07
 IDIUse=1 WtCom= 1.00D+00 WtEn= 0.00D+00
 Coeff-Com:  0.100D+01
 Coeff:      0.100D+01
 Gap=     0.207 Goal=   None    Shift=    0.000
 Gap=     0.207 Goal=   None    Shift=    0.000
 RMSDP=2.82D-06 MaxDP=6.06D-05 DE= 1.18D-05 OVMax= 1.81D-04

 Cycle  10  Pass 1  IDiag  1:
 E= -280.405456178702     Delta-E=        0.000000087253 Rises=F Damp=F
 DIIS: error= 3.62D-05 at cycle   2 NSaved=   2.
 NSaved= 2 IEnMin= 1 EnMin= -280.405456265954     IErMin= 1 ErrMin= 1.45D-05
 ErrMax= 3.62D-05  0.00D+00 EMaxC= 1.00D-01 BMatC= 5.68D-07 BMatP= 1.01D-07
 IDIUse=1 WtCom= 1.00D+00 WtEn= 0.00D+00
 Coeff-Com:  0.710D+00 0.290D+00
 Coeff:      0.710D+00 0.290D+00
 Gap=     0.207 Goal=   None    Shift=    0.000
 Gap=     0.207 Goal=   None    Shift=    0.000
 RMSDP=2.91D-06 MaxDP=8.05D-05 DE= 8.73D-08 OVMax= 1.31D-04

 Cycle  11  Pass 1  IDiag  1:
 E= -280.405456289087     Delta-E=       -0.000000110385 Rises=F Damp=F
 DIIS: error= 1.28D-06 at cycle   3 NSaved=   3.
 NSaved= 3 IEnMin= 3 EnMin= -280.405456289087     IErMin= 3 ErrMin= 1.28D-06
 ErrMax= 1.28D-06  0.00D+00 EMaxC= 1.00D-01 BMatC= 8.68D-10 BMatP= 1.01D-07
 IDIUse=1 WtCom= 1.00D+00 WtEn= 0.00D+00
 Coeff-Com:  0.611D-01 0.455D-01 0.893D+00
 Coeff:      0.611D-01 0.455D-01 0.893D+00
 Gap=     0.207 Goal=   None    Shift=    0.000
 Gap=     0.207 Goal=   None    Shift=    0.000
 RMSDP=3.47D-07 MaxDP=5.29D-06 DE=-1.10D-07 OVMax= 5.65D-06

 Cycle  12  Pass 1  IDiag  1:
 E= -280.405456289052     Delta-E=        0.000000000035 Rises=F Damp=F
 DIIS: error= 1.31D-06 at cycle   4 NSaved=   4.
 NSaved= 4 IEnMin= 3 EnMin= -280.405456289087     IErMin= 3 ErrMin= 1.28D-06
 ErrMax= 1.31D-06  0.00D+00 EMaxC= 1.00D-01 BMatC= 1.11D-09 BMatP= 8.68D-10
 IDIUse=1 WtCom= 1.00D+00 WtEn= 0.00D+00
 Coeff-Com: -0.637D-02 0.119D-01 0.588D+00 0.406D+00
 Coeff:     -0.637D-02 0.119D-01 0.588D+00 0.406D+00
 Gap=     0.207 Goal=   None    Shift=    0.000
 Gap=     0.207 Goal=   None    Shift=    0.000
 RMSDP=1.62D-07 MaxDP=4.27D-06 DE= 3.47D-11 OVMax= 7.58D-06

 Cycle  13  Pass 1  IDiag  1:
 E= -280.405456289242     Delta-E=       -0.000000000190 Rises=F Damp=F
 DIIS: error= 5.62D-07 at cycle   5 NSaved=   5.
 NSaved= 5 IEnMin= 5 EnMin= -280.405456289242     IErMin= 5 ErrMin= 5.62D-07
 ErrMax= 5.62D-07  0.00D+00 EMaxC= 1.00D-01 BMatC= 1.29D-10 BMatP= 8.68D-10
 IDIUse=1 WtCom= 1.00D+00 WtEn= 0.00D+00
 Coeff-Com: -0.114D-01 0.211D-02 0.222D+00 0.280D+00 0.507D+00
 Coeff:     -0.114D-01 0.211D-02 0.222D+00 0.280D+00 0.507D+00
 Gap=     0.207 Goal=   None    Shift=    0.000
 Gap=     0.207 Goal=   None    Shift=    0.000
 RMSDP=5.29D-08 MaxDP=1.03D-06 DE=-1.90D-10 OVMax= 1.63D-06

 Cycle  14  Pass 1  IDiag  1:
 E= -280.405456289265     Delta-E=       -0.000000000023 Rises=F Damp=F
 DIIS: error= 1.21D-07 at cycle   6 NSaved=   6.
 NSaved= 6 IEnMin= 6 EnMin= -280.405456289265     IErMin= 6 ErrMin= 1.21D-07
 ErrMax= 1.21D-07  0.00D+00 EMaxC= 1.00D-01 BMatC= 9.84D-12 BMatP= 1.29D-10
 IDIUse=1 WtCom= 1.00D+00 WtEn= 0.00D+00
 Coeff-Com: -0.702D-02 0.831D-03 0.998D-01 0.156D+00 0.297D+00 0.453D+00
 Coeff:     -0.702D-02 0.831D-03 0.998D-01 0.156D+00 0.297D+00 0.453D+00
 Gap=     0.207 Goal=   None    Shift=    0.000
 Gap=     0.207 Goal=   None    Shift=    0.000
 RMSDP=1.28D-08 MaxDP=3.23D-07 DE=-2.29D-11 OVMax= 4.26D-07

 Cycle  15  Pass 1  IDiag  1:
 E= -280.405456289266     Delta-E=       -0.000000000001 Rises=F Damp=F
 DIIS: error= 4.57D-08 at cycle   7 NSaved=   7.
 NSaved= 7 IEnMin= 7 EnMin= -280.405456289266     IErMin= 7 ErrMin= 4.57D-08
 ErrMax= 4.57D-08  0.00D+00 EMaxC= 1.00D-01 BMatC= 9.43D-13 BMatP= 9.84D-12
 IDIUse=1 WtCom= 1.00D+00 WtEn= 0.00D+00
 Coeff-Com:  0.477D-03 0.222D-03-0.211D-01-0.853D-02-0.509D-01 0.159D+00
 Coeff-Com:  0.921D+00
 Coeff:      0.477D-03 0.222D-03-0.211D-01-0.853D-02-0.509D-01 0.159D+00
 Coeff:      0.921D+00
 Gap=     0.207 Goal=   None    Shift=    0.000
 Gap=     0.207 Goal=   None    Shift=    0.000
 RMSDP=6.94D-09 MaxDP=1.26D-07 DE=-1.25D-12 OVMax= 1.71D-07

 SCF Done:  E(UB3LYP) =  -280.405456289     A.U. after   15 cycles
            NFock= 15  Conv=0.69D-08     -V/T= 2.0049
 <Sx>= 0.0000 <Sy>= 0.0000 <Sz>= 0.0000 <S**2>=-0.0000 S=-0.0000
 <L.S>= 0.000000000000E+00
 KE= 2.790507909082D+02 PE=-9.054748036072D+02 EE= 2.279716854216D+02
 Annihilation of the first spin contaminant:
 S**2 before annihilation    -0.0000,   after    -0.0000
 Leave Link  502 at Sun Aug  2 03:26:33 2020, MaxMem=   524288000 cpu:              17.3 elap:               2.5
 (Enter /home/ubuntu/g16/l601.exe)
 Copying SCF densities to generalized density rwf, IOpCl= 1 IROHF=0.

 **********************************************************************

            Population analysis using the SCF density.

 **********************************************************************

 Orbital symmetries:
 Alpha Orbitals:
       Occupied  (A') (A') (A') (A') (A') (A') (A') (A') (A") (A')
                 (A') (A') (A') (A") (A") (A')
       Virtual   (A") (A') (A') (A') (A") (A') (A') (A') (A") (A")
                 (A') (A') (A') (A') (A") (A') (A') (A') (A') (A')
                 (A") (A') (A") (A') (A') (A") (A') (A') (A') (A")
                 (A') (A") (A') (A") (A') (A") (A") (A') (A") (A')
                 (A') (A') (A') (A') (A") (A") (A") (A') (A') (A')
                 (A') (A') (A') (A") (A") (A') (A') (A') (A') (A')
                 (A") (A") (A') (A') (A") (A") (A') (A') (A') (A')
                 (A") (A') (A") (A') (A') (A')
 Beta  Orbitals:
       Occupied  (A') (A') (A') (A') (A') (A') (A') (A') (A") (A')
                 (A') (A') (A') (A") (A") (A')
       Virtual   (A") (A') (A') (A') (A") (A') (A') (A') (A") (A")
                 (A') (A') (A') (A') (A") (A') (A') (A') (A') (A')
                 (A") (A') (A") (A') (A') (A") (A') (A') (A') (A")
                 (A') (A") (A') (A") (A') (A") (A") (A') (A") (A')
                 (A') (A') (A') (A') (A") (A") (A") (A') (A') (A')
                 (A') (A') (A') (A") (A") (A') (A') (A') (A') (A')
                 (A") (A") (A') (A') (A") (A") (A') (A') (A') (A')
                 (A") (A') (A") (A') (A') (A')
 The electronic state is 1-A'.
     Natural Orbital Coefficients:
                           1         2         3         4         5
     Eigenvalues --     2.00000   2.00000   2.00000   2.00000   2.00000
   1 1   N  1S          0.00427   0.15491  -0.05363  -0.01225   0.19385
   2        2S         -0.12901   0.15305   0.19205   0.05359  -0.08639
   3        3S         -0.05253  -0.10156   0.14838   0.11990  -0.04544
   4        4S         -0.02332  -0.07034   0.06561   0.05809  -0.00744
   5        5PX        -0.01558   0.06207  -0.21558   0.07416   0.06453
   6        5PY        -0.03813   0.15363  -0.09225  -0.17919  -0.12649
   7        5PZ        -0.00000   0.00000  -0.00000  -0.00000  -0.00000
   8        6PX         0.04312  -0.00149   0.01696  -0.05480   0.02507
   9        6PY         0.00627   0.03985  -0.07721  -0.08023  -0.00137
  10        6PZ        -0.00000   0.00000   0.00000  -0.00000   0.00000
  11        7PX         0.01004  -0.00423   0.00901  -0.02698   0.00858
  12        7PY         0.00017   0.01267  -0.02287  -0.02291  -0.00918
  13        7PZ         0.00000   0.00000  -0.00000   0.00000  -0.00000
  14        8D 0        0.00502  -0.01236  -0.00555   0.00123   0.00635
  15        8D+1       -0.00000  -0.00000  -0.00000  -0.00000  -0.00000
  16        8D-1       -0.00000  -0.00000   0.00000  -0.00000  -0.00000
  17        8D+2       -0.01180   0.00726   0.02128   0.01494  -0.02080
  18        8D-2       -0.00078   0.00744  -0.01425   0.01337   0.00016
  19        9D 0       -0.00189   0.01193  -0.00153  -0.00478   0.00358
  20        9D+1        0.00000  -0.00000   0.00000   0.00000  -0.00000
  21        9D-1        0.00000   0.00000  -0.00000   0.00000   0.00000
  22        9D+2       -0.00214   0.00211  -0.00071   0.00201   0.00429
  23        9D-2        0.01440  -0.00593   0.02764  -0.02248  -0.00164
  24 2   O  1S         -0.52693  -0.36123  -0.24411   0.09824  -0.23203
  25        2S         -0.03407   0.11502   0.28486  -0.23941  -0.08712
  26        3S          0.02983   0.15275   0.31984  -0.30870  -0.05194
  27        4S          0.03567   0.02236   0.01903  -0.07243   0.03274
  28        5PX        -0.07854   0.03518   0.00635  -0.05551  -0.07303
  29        5PY         0.01451  -0.02362  -0.19876  -0.14742   0.13526
  30        5PZ        -0.00000  -0.00000   0.00000  -0.00000   0.00000
  31        6PX        -0.02618   0.02559  -0.00805  -0.04869  -0.02038
  32        6PY        -0.00769  -0.02460  -0.10539  -0.08246   0.07386
  33        6PZ         0.00000  -0.00000  -0.00000   0.00000  -0.00000
  34        7PX        -0.00350  -0.00578  -0.01803  -0.00602   0.00885
  35        7PY        -0.01117  -0.01100  -0.01381  -0.01754   0.01805
  36        7PZ         0.00000  -0.00000   0.00000   0.00000   0.00000
  37        8D 0        0.00246  -0.00281  -0.00504   0.00123   0.00403
  38        8D+1       -0.00000   0.00000   0.00000   0.00000  -0.00000
  39        8D-1        0.00000   0.00000   0.00000  -0.00000  -0.00000
  40        8D+2       -0.00385   0.00546  -0.00155  -0.00735  -0.00357
  41        8D-2        0.00326  -0.00265  -0.01376  -0.00164   0.00664
  42        9D 0        0.00039  -0.00464   0.00148   0.00144  -0.00067
  43        9D+1        0.00000  -0.00000  -0.00000   0.00000  -0.00000
  44        9D-1       -0.00000   0.00000   0.00000  -0.00000  -0.00000
  45        9D+2       -0.00145   0.00541   0.00113  -0.00619  -0.00150
  46        9D-2       -0.00124  -0.00415  -0.00769   0.00013   0.00134
  47 3   O  1S          0.75734   0.01553   0.15388   0.11109  -0.08780
  48        2S         -0.09712   0.29220  -0.07370   0.25298  -0.13126
  49        3S         -0.15655   0.33124  -0.11354   0.30535  -0.13989
  50        4S         -0.01729   0.04630  -0.01623   0.07807  -0.02317
  51        5PX        -0.01387  -0.08247   0.05906   0.11738  -0.00751
  52        5PY         0.11330   0.01043  -0.02899  -0.04578   0.05869
  53        5PZ         0.00000  -0.00000  -0.00000  -0.00000   0.00000
  54        6PX        -0.00454  -0.05036   0.04349   0.06088  -0.01182
  55        6PY         0.07598   0.00784  -0.01174  -0.02025   0.03959
  56        6PZ         0.00000   0.00000  -0.00000  -0.00000   0.00000
  57        7PX        -0.01428   0.00079  -0.00037   0.00594  -0.00698
  58        7PY         0.02314   0.00555   0.00210   0.00250   0.01752
  59        7PZ        -0.00000   0.00000   0.00000   0.00000  -0.00000
  60        8D 0        0.00231  -0.00436   0.00118   0.00095   0.00126
  61        8D+1        0.00000  -0.00000  -0.00000  -0.00000  -0.00000
  62        8D-1        0.00000   0.00000  -0.00000   0.00000   0.00000
  63        8D+2       -0.00037   0.00777  -0.00202  -0.00554  -0.00294
  64        8D-2       -0.00538   0.00551  -0.00037   0.00411  -0.00201
  65        9D 0        0.00133  -0.00345   0.00005   0.00335  -0.00056
  66        9D+1       -0.00000   0.00000   0.00000  -0.00000   0.00000
  67        9D-1       -0.00000  -0.00000   0.00000  -0.00000   0.00000
  68        9D+2       -0.00283   0.00688  -0.00080  -0.00101  -0.00247
  69        9D-2       -0.00601   0.00379   0.00051   0.00338  -0.00169
  70 4   O  1S          0.20039  -0.34111  -0.07084   0.03087  -0.80805
  71        2S          0.04592   0.18182  -0.22184  -0.21281  -0.01105
  72        3S          0.05035   0.26148  -0.30156  -0.29463   0.03897
  73        4S          0.02090   0.08519  -0.12046  -0.11823  -0.00607
  74        5PX         0.04246   0.03534  -0.03355   0.08083   0.01913
  75        5PY        -0.00918  -0.10200   0.15290   0.15999   0.09374
  76        5PZ         0.00000   0.00000  -0.00000   0.00000  -0.00000
  77        6PX         0.03111   0.02227  -0.01309   0.05180   0.00980
  78        6PY        -0.00105  -0.03211   0.05898   0.06377   0.07408
  79        6PZ         0.00000  -0.00000  -0.00000   0.00000   0.00000
  80        7PX         0.01595   0.01166  -0.00192   0.02793   0.00129
  81        7PY         0.00607  -0.00381  -0.00672  -0.00430   0.01413
  82        7PZ         0.00000  -0.00000  -0.00000  -0.00000   0.00000
  83        8D 0        0.00122   0.00037  -0.00456  -0.00395  -0.00086
  84        8D+1        0.00000   0.00000  -0.00000   0.00000  -0.00000
  85        8D-1        0.00000   0.00000  -0.00000   0.00000  -0.00000
  86        8D+2        0.00156   0.00017  -0.00621  -0.00525  -0.00213
  87        8D-2        0.00025   0.00130  -0.00363   0.00238   0.00129
  88        9D 0        0.00091  -0.00395  -0.00095  -0.00008  -0.00249
  89        9D+1       -0.00000  -0.00000  -0.00000   0.00000   0.00000
  90        9D-1       -0.00000  -0.00000   0.00000  -0.00000  -0.00000
  91        9D+2        0.00132  -0.00709   0.00003   0.00139  -0.00561
  92        9D-2        0.00109   0.00075  -0.00041   0.00130   0.00022
                           6         7         8         9        10
     Eigenvalues --     2.00000   2.00000   2.00000   2.00000   2.00000
   1 1   N  1S         -0.22853   0.14208   0.00000   0.85253  -0.23208
   2        2S          0.20007   0.02209   0.00000  -0.10545  -0.06908
   3        3S          0.25093   0.03566   0.00000  -0.08530  -0.04941
   4        4S          0.14831   0.02339   0.00000  -0.02619  -0.01710
   5        5PX        -0.01536   0.16798   0.00000  -0.10440   0.25596
   6        5PY         0.23243   0.07334   0.00000   0.10185   0.13911
   7        5PZ        -0.00000   0.00000   0.43722   0.00000   0.00000
   8        6PX        -0.00446   0.07337   0.00000  -0.02139   0.06557
   9        6PY         0.07334   0.01201   0.00000   0.02815   0.01409
  10        6PZ        -0.00000   0.00000   0.17749  -0.00000   0.00000
  11        7PX        -0.00712   0.01849   0.00000  -0.01099   0.02388
  12        7PY         0.03892   0.00639   0.00000   0.01598   0.00087
  13        7PZ         0.00000  -0.00000   0.01394  -0.00000  -0.00000
  14        8D 0       -0.00167  -0.00015  -0.00000   0.00354   0.00099
  15        8D+1        0.00000   0.00000  -0.00593   0.00000  -0.00000
  16        8D-1       -0.00000  -0.00000   0.02531  -0.00000  -0.00000
  17        8D+2        0.02490   0.01117   0.00000   0.02332   0.01902
  18        8D-2       -0.00573  -0.01814   0.00000  -0.00974   0.00526
  19        9D 0       -0.00938  -0.00201  -0.00000   0.00154  -0.00159
  20        9D+1        0.00000  -0.00000  -0.00121  -0.00000  -0.00000
  21        9D-1        0.00000  -0.00000   0.00686   0.00000  -0.00000
  22        9D+2        0.01321   0.00180   0.00000   0.00632   0.00282
  23        9D-2        0.00185  -0.03834  -0.00000   0.00960  -0.00083
  24 2   O  1S         -0.26777   0.10826  -0.00000   0.15168   0.18530
  25        2S         -0.17706   0.07871  -0.00000  -0.01134   0.11087
  26        3S         -0.28338   0.09504  -0.00000  -0.02116   0.16840
  27        4S         -0.16007   0.05987  -0.00000  -0.02677   0.09652
  28        5PX         0.25926  -0.13005  -0.00000   0.07564  -0.07900
  29        5PY        -0.16459  -0.10860  -0.00000  -0.06673   0.22309
  30        5PZ        -0.00000  -0.00000   0.37309  -0.00000  -0.00000
  31        6PX         0.10450  -0.08780  -0.00000   0.04255  -0.01519
  32        6PY        -0.07437  -0.10027  -0.00000  -0.03309   0.12793
  33        6PZ         0.00000   0.00000   0.22709  -0.00000  -0.00000
  34        7PX        -0.00255  -0.02422  -0.00000   0.00952   0.02254
  35        7PY        -0.01516  -0.07008  -0.00000  -0.00431   0.03173
  36        7PZ        -0.00000  -0.00000   0.04354  -0.00000  -0.00000
  37        8D 0       -0.00692   0.00304  -0.00000  -0.00033   0.00494
  38        8D+1       -0.00000  -0.00000   0.01933  -0.00000  -0.00000
  39        8D-1        0.00000  -0.00000  -0.00971  -0.00000  -0.00000
  40        8D+2        0.00940  -0.00209  -0.00000   0.00092   0.00341
  41        8D-2       -0.00815   0.00164  -0.00000  -0.00080   0.01117
  42        9D 0        0.00082   0.00118  -0.00000   0.00149   0.00014
  43        9D+1        0.00000   0.00000   0.01748   0.00000  -0.00000
  44        9D-1       -0.00000   0.00000  -0.00731  -0.00000  -0.00000
  45        9D+2        0.00431  -0.00447  -0.00000   0.00021   0.00660
  46        9D-2        0.00158  -0.00338  -0.00000   0.00387   0.00475
  47 3   O  1S         -0.02892   0.04781   0.00000   0.16508   0.34759
  48        2S         -0.12579  -0.08804   0.00000  -0.02908   0.04726
  49        3S         -0.23451  -0.14465  -0.00000  -0.01760  -0.00991
  50        4S         -0.13155  -0.10128  -0.00000   0.03063  -0.06225
  51        5PX        -0.12967  -0.18233  -0.00000   0.15607  -0.05976
  52        5PY        -0.26520  -0.00742   0.00000  -0.14998  -0.31237
  53        5PZ         0.00000   0.00000   0.26455  -0.00000  -0.00000
  54        6PX        -0.02085  -0.09716  -0.00000   0.09190  -0.00050
  55        6PY        -0.14844   0.03510   0.00000  -0.11525  -0.18764
  56        6PZ        -0.00000  -0.00000   0.15304   0.00000   0.00000
  57        7PX         0.02715  -0.01645  -0.00000   0.02038   0.02845
  58        7PY        -0.04975   0.04868   0.00000  -0.05647  -0.05870
  59        7PZ        -0.00000  -0.00000   0.01973   0.00000  -0.00000
  60        8D 0       -0.00607  -0.00496  -0.00000   0.00368  -0.00499
  61        8D+1        0.00000   0.00000  -0.01676  -0.00000  -0.00000
  62        8D-1        0.00000   0.00000  -0.00812   0.00000   0.00000
  63        8D+2        0.00549   0.00466   0.00000  -0.00533  -0.00048
  64        8D-2        0.00909   0.00465   0.00000  -0.00321   0.01117
  65        9D 0        0.00089   0.00013   0.00000   0.00090   0.00069
  66        9D+1       -0.00000   0.00000  -0.01457   0.00000  -0.00000
  67        9D-1       -0.00000  -0.00000  -0.00563  -0.00000   0.00000
  68        9D+2        0.00084   0.00498   0.00000  -0.00446  -0.00311
  69        9D-2        0.00030  -0.00493  -0.00000  -0.00129   0.00225
  70 4   O  1S         -0.02540   0.04831  -0.00000   0.03334  -0.16003
  71        2S         -0.06455  -0.06129   0.00000  -0.05300  -0.13894
  72        3S         -0.08052  -0.07334   0.00000  -0.03770  -0.13651
  73        4S         -0.00337  -0.00714   0.00000   0.03095  -0.00368
  74        5PX        -0.01826   0.54611   0.00000  -0.08254  -0.15487
  75        5PY        -0.15101  -0.05561  -0.00000  -0.17157  -0.11801
  76        5PZ         0.00000  -0.00000  -0.08258  -0.00000  -0.00000
  77        6PX        -0.01252   0.35033   0.00000  -0.05181  -0.11435
  78        6PY        -0.10832  -0.03908  -0.00000  -0.09584  -0.06818
  79        6PZ         0.00000   0.00000  -0.07114   0.00000   0.00000
  80        7PX        -0.00966   0.14982   0.00000  -0.02618  -0.06722
  81        7PY        -0.02664  -0.00745  -0.00000  -0.01450  -0.00772
  82        7PZ         0.00000   0.00000  -0.05212   0.00000   0.00000
  83        8D 0        0.00169   0.00119   0.00000   0.00414   0.00335
  84        8D+1       -0.00000  -0.00000  -0.00017   0.00000   0.00000
  85        8D-1        0.00000   0.00000   0.00597  -0.00000   0.00000
  86        8D+2        0.00360   0.00258   0.00000   0.00804   0.00698
  87        8D-2       -0.00025   0.01359   0.00000  -0.00264   0.00077
  88        9D 0        0.00460   0.00179   0.00000   0.00240   0.00266
  89        9D+1        0.00000  -0.00000  -0.00030  -0.00000   0.00000
  90        9D-1        0.00000  -0.00000   0.00347   0.00000  -0.00000
  91        9D+2        0.00599   0.00384   0.00000   0.00732   0.00652
  92        9D-2       -0.00013   0.00561   0.00000  -0.00098  -0.00180
                          11        12        13        14        15
     Eigenvalues --     2.00000   2.00000   2.00000   2.00000   2.00000
   1 1   N  1S         -0.00000   0.29611  -0.00000   0.05629   0.15313
   2        2S         -0.00000   0.19821  -0.00000  -0.18149   0.00020
   3        3S         -0.00000   0.18715  -0.00000  -0.21949   0.04030
   4        4S         -0.00000   0.07686  -0.00000  -0.08868   0.03778
   5        5PX        -0.00000   0.24180  -0.00000   0.13138   0.01942
   6        5PY        -0.00000  -0.16614  -0.00000   0.01497   0.23484
   7        5PZ         0.04278  -0.00000  -0.22015  -0.00000  -0.00000
   8        6PX        -0.00000   0.06058  -0.00000   0.02351  -0.01636
   9        6PY        -0.00000  -0.05246  -0.00000  -0.04044   0.02044
  10        6PZ         0.01630  -0.00000  -0.11622  -0.00000   0.00000
  11        7PX        -0.00000   0.02162  -0.00000   0.01836   0.00607
  12        7PY        -0.00000  -0.01837  -0.00000  -0.00198  -0.01538
  13        7PZ         0.00091   0.00000  -0.01844   0.00000  -0.00000
  14        8D 0        0.00000  -0.00420   0.00000   0.00390   0.00165
  15        8D+1        0.05027   0.00000  -0.00201  -0.00000   0.00000
  16        8D-1        0.00426  -0.00000   0.03239   0.00000   0.00000
  17        8D+2       -0.00000  -0.02056  -0.00000   0.03384  -0.02191
  18        8D-2       -0.00000   0.00449  -0.00000   0.02231   0.02701
  19        9D 0        0.00000  -0.00264   0.00000   0.00776  -0.00312
  20        9D+1        0.01029   0.00000  -0.00040   0.00000  -0.00000
  21        9D-1        0.00167   0.00000   0.02133  -0.00000  -0.00000
  22        9D+2       -0.00000  -0.01095  -0.00000  -0.00239  -0.02653
  23        9D-2       -0.00000  -0.00462  -0.00000   0.00066   0.00495
  24 2   O  1S          0.00000  -0.19017   0.00000  -0.48566   0.00230
  25        2S          0.00000  -0.01283   0.00000   0.06708  -0.04967
  26        3S          0.00000   0.01046   0.00000   0.18964  -0.07920
  27        4S          0.00000   0.04133  -0.00000   0.11441  -0.02870
  28        5PX         0.00000  -0.02719   0.00000  -0.31166   0.03632
  29        5PY         0.00000   0.28808   0.00000  -0.15098   0.06817
  30        5PZ        -0.41741   0.00000   0.11599  -0.00000  -0.00000
  31        6PX         0.00000   0.00015   0.00000  -0.14332   0.00520
  32        6PY         0.00000   0.18214   0.00000  -0.13192   0.03702
  33        6PZ        -0.28749   0.00000   0.09327   0.00000  -0.00000
  34        7PX         0.00000   0.02301   0.00000  -0.02224  -0.01406
  35        7PY         0.00000   0.06173   0.00000  -0.05491   0.00789
  36        7PZ        -0.09496   0.00000   0.05473  -0.00000  -0.00000
  37        8D 0       -0.00000   0.00295  -0.00000   0.00615  -0.00212
  38        8D+1       -0.00887   0.00000  -0.00187  -0.00000  -0.00000
  39        8D-1        0.00568   0.00000   0.00265   0.00000  -0.00000
  40        8D+2        0.00000   0.00186   0.00000  -0.01068   0.00634
  41        8D-2        0.00000   0.00747   0.00000   0.00487   0.00213
  42        9D 0        0.00000   0.00050   0.00000  -0.00173  -0.00108
  43        9D+1       -0.01049   0.00000  -0.00055   0.00000  -0.00000
  44        9D-1        0.00633  -0.00000   0.00198  -0.00000   0.00000
  45        9D+2        0.00000   0.00233   0.00000  -0.00206   0.00164
  46        9D-2        0.00000   0.00133   0.00000  -0.00425   0.00281
  47 3   O  1S         -0.00000  -0.07284  -0.00000  -0.47949  -0.06311
  48        2S         -0.00000  -0.06174  -0.00000   0.08341   0.05486
  49        3S          0.00000  -0.13852   0.00000   0.16877   0.05292
  50        4S          0.00000  -0.10502   0.00000   0.03861  -0.01225
  51        5PX         0.00000  -0.12399   0.00000  -0.00006  -0.28589
  52        5PY        -0.00000  -0.16419  -0.00000  -0.10240   0.35617
  53        5PZ         0.50066   0.00000   0.07891  -0.00000   0.00000
  54        6PX         0.00000  -0.03279   0.00000  -0.02741  -0.16844
  55        6PY        -0.00000  -0.07791  -0.00000  -0.07380   0.23013
  56        6PZ         0.33895  -0.00000   0.06797  -0.00000   0.00000
  57        7PX         0.00000   0.01723   0.00000  -0.01100  -0.04126
  58        7PY        -0.00000  -0.00607  -0.00000  -0.01821   0.07523
  59        7PZ         0.10654  -0.00000   0.04660   0.00000   0.00000
  60        8D 0        0.00000  -0.00644   0.00000   0.00129  -0.00220
  61        8D+1       -0.01296  -0.00000   0.00276  -0.00000  -0.00000
  62        8D-1       -0.00753   0.00000   0.00318  -0.00000   0.00000
  63        8D+2       -0.00000  -0.00069  -0.00000  -0.00282   0.01631
  64        8D-2       -0.00000   0.01270  -0.00000   0.00137  -0.00565
  65        9D 0       -0.00000   0.00099  -0.00000  -0.00053   0.00033
  66        9D+1       -0.01420  -0.00000   0.00155   0.00000  -0.00000
  67        9D-1       -0.00765  -0.00000   0.00254   0.00000   0.00000
  68        9D+2       -0.00000  -0.00504  -0.00000   0.00106   0.00860
  69        9D-2        0.00000   0.00429   0.00000   0.00293  -0.00602
  70 4   O  1S          0.00000   0.34191   0.00000   0.21428   0.13626
  71        2S         -0.00000  -0.00259  -0.00000  -0.09229  -0.22319
  72        3S         -0.00000  -0.07274  -0.00000  -0.10002  -0.26678
  73        4S         -0.00000  -0.07540  -0.00000   0.00563  -0.03761
  74        5PX         0.00000  -0.09308   0.00000  -0.08456  -0.10034
  75        5PY         0.00000   0.24396   0.00000  -0.14035  -0.00124
  76        5PZ        -0.03308   0.00000  -0.57738   0.00000  -0.00000
  77        6PX         0.00000  -0.07291   0.00000  -0.05747  -0.06144
  78        6PY         0.00000   0.11768   0.00000  -0.08000  -0.01167
  79        6PZ        -0.02387  -0.00000  -0.38270  -0.00000   0.00000
  80        7PX         0.00000  -0.04675   0.00000  -0.01985  -0.01222
  81        7PY         0.00000   0.01275   0.00000  -0.01662   0.01976
  82        7PZ        -0.01173   0.00000  -0.13773   0.00000  -0.00000
  83        8D 0       -0.00000  -0.00581  -0.00000   0.00300   0.00399
  84        8D+1        0.00145  -0.00000  -0.00007   0.00000   0.00000
  85        8D-1        0.00004   0.00000  -0.01652  -0.00000  -0.00000
  86        8D+2       -0.00000  -0.01089  -0.00000   0.00689   0.00615
  87        8D-2        0.00000   0.00178   0.00000  -0.00077  -0.00299
  88        9D 0       -0.00000  -0.00161  -0.00000   0.00004   0.00558
  89        9D+1        0.00254   0.00000  -0.00011   0.00000  -0.00000
  90        9D-1       -0.00031  -0.00000  -0.01771   0.00000   0.00000
  91        9D+2       -0.00000  -0.00454  -0.00000   0.00611   0.01079
  92        9D-2        0.00000  -0.00112   0.00000  -0.00073  -0.00076
                          16        17        18        19        20
     Eigenvalues --     2.00000   0.00000   0.00000   0.00000   0.00000
   1 1   N  1S         -0.04771   0.00876   0.02723   0.01023  -0.00184
   2        2S         -0.10083  -0.02858  -0.07823   0.08268   0.03569
   3        3S         -0.11937  -0.05785  -0.17868   0.14094  -0.02082
   4        4S         -0.04979   0.00701   0.12110   0.17540  -0.10828
   5        5PX        -0.13326  -0.07754   0.03265  -0.05069  -0.01662
   6        5PY         0.06487   0.10149  -0.06896  -0.08962   0.03349
   7        5PZ        -0.00000   0.10135  -0.07256   0.22760  -0.27670
   8        6PX        -0.01425   0.00799   0.17402   0.11788   0.07050
   9        6PY        -0.02308  -0.07114   0.00226  -0.03765  -0.08535
  10        6PZ        -0.00000   0.02884  -0.17348   0.19185   0.58819
  11        7PX        -0.02925   0.08811   0.06790  -0.08616  -0.02322
  12        7PY        -0.01913   0.01576  -0.06487  -0.04640  -0.06586
  13        7PZ         0.00000  -0.15900  -0.69351   0.68395  -0.07657
  14        8D 0        0.00201   0.00633  -0.07235  -0.03107   0.00184
  15        8D+1       -0.00000   0.16671  -0.07407   0.02027  -0.15223
  16        8D-1       -0.00000  -0.04531  -0.41026   0.17106   0.04585
  17        8D+2       -0.00928  -0.09631  -0.08349   0.03434   0.00990
  18        8D-2       -0.04789   0.07931  -0.07515   0.03758   0.03935
  19        9D 0        0.00402  -0.01271  -0.08051  -0.20505   0.01241
  20        9D+1        0.00000   0.19354  -0.36685  -0.05718   0.64630
  21        9D-1        0.00000  -0.17289   0.64324  -0.37440   0.18924
  22        9D+2       -0.01916  -0.03477   0.02275  -0.19459  -0.08183
  23        9D-2       -0.00967  -0.06331   0.02229   0.07163   0.05149
  24 2   O  1S         -0.31826  -0.00207  -0.02193   0.01711   0.00005
  25        2S          0.08457   0.04446   0.13897  -0.11508  -0.00603
  26        3S          0.13375  -0.00337  -0.01171   0.06092   0.14525
  27        4S          0.01170   0.05651   0.12198   0.00120   0.03028
  28        5PX         0.27924  -0.04585   0.03220   0.07360  -0.02587
  29        5PY         0.30164  -0.07354  -0.06791  -0.02458  -0.01204
  30        5PZ         0.00000   0.05139  -0.06492   0.02753  -0.34754
  31        6PX         0.18786  -0.01931   0.16386  -0.11123   0.01542
  32        6PY         0.19458  -0.01814  -0.08170  -0.00219   0.01597
  33        6PZ         0.00000   0.09535  -0.25458  -0.10432   0.33697
  34        7PX         0.05520   0.01227   0.07804   0.01536   0.04284
  35        7PY         0.07193   0.01170  -0.07689   0.04535   0.02533
  36        7PZ        -0.00000   0.19720   0.41957   0.05745   0.31319
  37        8D 0       -0.00092  -0.01858  -0.09061   0.08687   0.03826
  38        8D+1        0.00000   0.22597   0.33102  -0.01125   0.05302
  39        8D-1        0.00000   0.48534   0.11150   0.02940   0.09277
  40        8D+2        0.01122   0.02880  -0.00853   0.04758   0.05162
  41        8D-2        0.00366   0.14915   0.18966   0.00253  -0.00152
  42        9D 0       -0.00030   0.00003  -0.04276  -0.04128  -0.01461
  43        9D+1        0.00000  -0.12597  -0.15395   0.04350   0.44647
  44        9D-1       -0.00000  -0.61337  -0.19107   0.05105  -0.63400
  45        9D+2        0.00745   0.00204   0.01793   0.13305   0.01204
  46        9D-2        0.00258   0.00830   0.02148   0.19796   0.01851
  47 3   O  1S         -0.19332   0.00604   0.00710   0.00605  -0.00083
  48        2S          0.05282  -0.02719   0.01192  -0.13739  -0.03169
  49        3S          0.12711   0.02492  -0.21420   0.01422   0.06045
  50        4S          0.09516  -0.00790   0.05829   0.01502   0.01089
  51        5PX         0.29916   0.00663  -0.02795   0.01526   0.03664
  52        5PY        -0.03090   0.00545   0.01156  -0.01008  -0.00697
  53        5PZ        -0.00000   0.06124   0.07359  -0.10210   0.00535
  54        6PX         0.15411  -0.05295  -0.08390   0.11881   0.04000
  55        6PY        -0.05348  -0.03826   0.00959  -0.07529   0.00200
  56        6PZ         0.00000  -0.22751   0.18142   0.23396  -0.45243
  57        7PX         0.03574   0.00188  -0.02073   0.00231  -0.03436
  58        7PY        -0.03065  -0.04516  -0.02214  -0.14472  -0.04264
  59        7PZ         0.00000   0.01443   0.18707  -0.63114  -0.58477
  60        8D 0        0.00379  -0.03332  -0.01843   0.08764   0.05892
  61        8D+1        0.00000   0.11843  -0.05061  -0.07455  -0.09264
  62        8D-1        0.00000  -0.39363   0.18590  -0.05411  -0.05803
  63        8D+2       -0.00662  -0.03713  -0.12813   0.18089   0.05677
  64        8D-2       -0.00551   0.09217  -0.11514  -0.12627  -0.00816
  65        9D 0       -0.00254  -0.00714  -0.12244   0.06617   0.07162
  66        9D+1       -0.00000  -0.21735   0.18022   0.31845   0.20139
  67        9D-1       -0.00000   0.55572  -0.22140   0.04753   0.32693
  68        9D+2       -0.00210   0.02907  -0.13387   0.06486   0.04252
  69        9D-2        0.00254  -0.02988   0.00752  -0.11827  -0.00101
  70 4   O  1S          0.13997  -0.00299   0.02967   0.00510   0.00132
  71        2S         -0.10888   0.01976  -0.14177  -0.09323  -0.04039
  72        3S         -0.12669  -0.07824  -0.13728  -0.12625  -0.02920
  73        4S         -0.01356   0.01958   0.15683  -0.14501  -0.01802
  74        5PX         0.20635  -0.11922  -0.10722   0.06872   0.02866
  75        5PY         0.00083   0.07029   0.08557   0.02279   0.03917
  76        5PZ         0.00000  -0.01933  -0.33185   0.19520   0.22216
  77        6PX         0.13250  -0.00959  -0.00742   0.02872   0.01467
  78        6PY         0.00196  -0.00029  -0.02418  -0.02037  -0.01240
  79        6PZ         0.00000  -0.18418   0.69592  -0.51447  -0.25986
  80        7PX         0.03828   0.16181   0.02394  -0.18309  -0.03090
  81        7PY         0.01271   0.00620  -0.05413  -0.04193  -0.05159
  82        7PZ         0.00000   0.12844   0.23628  -0.16053  -0.17480
  83        8D 0        0.00227   0.02805   0.03072  -0.01691   0.01710
  84        8D+1       -0.00000  -0.52661   0.24418   0.44190  -0.03688
  85        8D-1        0.00000   0.02665  -0.09223   0.46309   0.12793
  86        8D+2        0.00378  -0.02960   0.11925  -0.03663  -0.02685
  87        8D-2        0.00439  -0.01986  -0.08625   0.08334   0.04380
  88        9D 0        0.00121  -0.01257   0.09298   0.02886  -0.00538
  89        9D+1        0.00000   0.70066  -0.12921   0.23651  -0.21073
  90        9D-1       -0.00000  -0.28515   0.07075  -0.45308  -0.00798
  91        9D+2        0.00483   0.02042   0.09817   0.07609  -0.00857
  92        9D-2        0.00180  -0.01075   0.06937  -0.01628   0.00941
                          21        22        23        24        25
     Eigenvalues --     0.00000   0.00000   0.00000   0.00000   0.00000
   1 1   N  1S          0.00673  -0.02320  -0.04474   0.06142  -0.03247
   2        2S          0.01067   0.01048  -0.18755   0.28106  -0.15321
   3        3S          0.07006  -0.13142   3.91579  -3.50405   3.16165
   4        4S          0.11923  -0.06547   2.09101   1.77471  -2.38257
   5        5PX        -0.02998  -0.03691   0.21203  -0.07277   0.00512
   6        5PY        -0.02827  -0.11484  -0.01469   0.09342   0.03454
   7        5PZ        -0.15623  -0.12026   0.26221  -0.19719  -0.20889
   8        6PX        -0.02603   0.22855  11.40426   0.58417   0.24047
   9        6PY         0.03027  -0.04863   0.58059   0.13602  -0.30657
  10        6PZ        -0.45718   0.89608  -0.17828   0.13089   0.13175
  11        7PX         0.06074  -0.21134   4.68314   0.20038   0.18774
  12        7PY         0.06021  -0.11053   0.00297   1.87062  -1.95038
  13        7PZ         0.17404   0.27125  -0.02991  -0.24951  -0.21171
  14        8D 0       -0.00726   0.11778  -0.04557   0.04178  -0.08599
  15        8D+1       -0.05950   0.08524  -0.03313   0.36456   0.46904
  16        8D-1       -0.28153   0.25396  -0.15763  -0.14260   0.16985
  17        8D+2       -0.05110   0.06485   0.00442  -0.10577  -0.00222
  18        8D-2       -0.00347  -0.01866   0.18706   0.17562   0.05502
  19        9D 0       -0.04113   0.02597  -0.44298   0.59285  -0.46649
  20        9D+1       -0.37677  -0.38576  -0.54653   0.25262   0.34612
  21        9D-1        1.38170  -0.67422   0.26035  -0.03307  -0.12148
  22        9D+2       -0.02373  -0.19765   0.58460  -2.58397   2.56279
  23        9D-2       -0.06521  -0.02512   7.46620   0.36240   0.20877
  24 2   O  1S          0.00821  -0.00814  -0.07195  -0.03063   0.02236
  25        2S         -0.02059   0.07467  -0.81589  -0.38825   0.29697
  26        3S         -0.10838   0.16661   8.89046   3.19636  -2.13311
  27        4S          0.02653  -0.11560   6.53690  -1.36733   2.18194
  28        5PX        -0.02540   0.12693  -0.09084   0.06486  -0.20269
  29        5PY        -0.08472  -0.05606  -0.06244  -0.03383   0.01132
  30        5PZ        -0.01009   0.17224  -0.00860   0.29762   0.22404
  31        6PX        -0.07864  -0.05725   4.22140   0.37874   0.14969
  32        6PY         0.04969  -0.04993  -0.30934  -1.52890   1.42358
  33        6PZ        -0.18223  -0.33191  -0.30933  -0.19081   0.28228
  34        7PX        -0.02590  -0.03242   0.52931  -0.56221   0.69725
  35        7PY        -0.02264   0.10422  -0.72845  -0.26256   0.33203
  36        7PZ        -0.49242  -0.55438  -0.33599   0.65058  -0.18889
  37        8D 0       -0.03500   0.05626  -0.07014  -0.09619  -0.05538
  38        8D+1       -0.10092   0.11184  -0.08962  -0.03229   0.18463
  39        8D-1        0.09926  -0.15234   0.11324  -0.02771  -0.05597
  40        8D+2       -0.01213   0.07716  -0.00028  -0.12134  -0.08220
  41        8D-2       -0.05902   0.12445   0.02440  -0.07238   0.06065
  42        9D 0       -0.02672  -0.12324   0.31061  -0.12661   0.01999
  43        9D+1       -0.41295  -0.11982  -0.26233   0.11693   0.10883
  44        9D-1       -0.36947   0.33957   0.09167  -0.19929  -0.17317
  45        9D+2        0.00478   0.20370   0.80369  -0.49763   0.15174
  46        9D-2        0.03144   0.14463  -0.10405  -0.53595   0.35560
  47 3   O  1S          0.00402   0.00617   0.10785  -0.04370   0.02942
  48        2S          0.00099  -0.12851   1.34711  -0.23241   0.32051
  49        3S         -0.02538   0.21528 -12.05876   2.17465  -2.68657
  50        4S         -0.02853   0.13640  -9.08245  -2.13888   1.77633
  51        5PX        -0.03071   0.16495   0.11807  -0.10335   0.06612
  52        5PY        -0.03683   0.16072   0.01144  -0.01133  -0.13104
  53        5PZ        -0.16073  -0.29036  -0.07714  -0.19489  -0.14206
  54        6PX        -0.00764  -0.04395   5.73444   0.08752   0.13450
  55        6PY        -0.01625  -0.05314   1.68053  -1.52019   1.59445
  56        6PZ         0.24546   0.46579   0.34894   0.17534  -0.08293
  57        7PX         0.05533  -0.09100   0.70107   0.51924  -0.63019
  58        7PY        -0.01518  -0.21814   0.87101  -0.37468   0.36518
  59        7PZ         0.24504  -0.07983   0.15113  -0.28526  -0.03166
  60        8D 0       -0.04213   0.01597   0.13657   0.01060   0.10500
  61        8D+1        0.24961   0.35833  -0.00395   0.22768  -0.29056
  62        8D-1        0.26107   0.12081  -0.14590   0.12919   0.04377
  63        8D+2        0.03661   0.00437   0.06374   0.14324  -0.11080
  64        8D-2       -0.03048   0.04479  -0.13664  -0.06254  -0.08978
  65        9D 0       -0.00605   0.02815  -0.05263   0.07348   0.09692
  66        9D+1        0.12985  -0.00640  -0.22182   0.03102   0.35550
  67        9D-1       -0.45135   0.24732   0.07924   0.04889   0.41289
  68        9D+2        0.07284  -0.04966  -0.80767  -0.36194   0.33208
  69        9D-2       -0.10621   0.11945  -0.63421   0.32478  -0.43517
  70 4   O  1S         -0.00533   0.01186   0.01361  -0.01159   0.02099
  71        2S          0.04333  -0.11062   0.10208  -0.07567  -0.03951
  72        3S         -0.04355  -0.03981  -0.27305  -0.68711   0.78426
  73        4S         -0.04135  -0.04488  -0.66122   1.50326  -1.43253
  74        5PX         0.00256  -0.18798  -0.00771  -0.00059   0.00074
  75        5PY         0.02771  -0.10549   0.10183  -0.01082   0.05813
  76        5PZ         0.17576   0.19632  -0.05455  -0.15788   0.16890
  77        6PX        -0.04767   0.09940   2.12045   0.18603   0.08097
  78        6PY        -0.01761   0.03371  -0.42373   0.26246  -0.28120
  79        6PZ         0.68468  -0.76426   0.16380   0.26133  -0.27773
  80        7PX         0.01846  -0.09612  -0.86530   0.00312   0.07792
  81        7PY         0.01548  -0.03459  -0.24022   0.08689  -0.22068
  82        7PZ         0.06623   0.06811   0.13309  -0.25328   0.47170
  83        8D 0       -0.00071  -0.03960   0.05846   0.00258   0.06551
  84        8D+1       -0.33095  -0.08391   0.00277   0.12884   0.13019
  85        8D-1        0.25100  -0.27895  -0.06712  -0.25071   0.10021
  86        8D+2       -0.00172  -0.01114   0.04375  -0.07941  -0.01661
  87        8D-2       -0.00024  -0.04778  -0.03141  -0.07896   0.08800
  88        9D 0        0.01046   0.01149   0.12718  -0.24424   0.30698
  89        9D+1        0.24275   0.12317  -0.09423  -0.15936  -0.18418
  90        9D-1        0.67126  -0.26241   0.00379   0.03086   0.14038
  91        9D+2        0.00574  -0.05749   0.12041  -0.05607   0.16091
  92        9D-2       -0.01338   0.02829   0.81966   0.01850  -0.00602
                          26        27        28        29        30
     Eigenvalues --     0.00000   0.00000   0.00000   0.00000   0.00000
   1 1   N  1S          0.06795   0.00234  -0.03107   0.00448  -0.00458
   2        2S          0.28141   0.04016  -0.24586   0.01824  -0.33839
   3        3S         -4.48501  -0.29299   4.46275  -0.44813   2.74712
   4        4S          3.10902   0.02492   0.71365  -0.06787   0.08141
   5        5PX         0.08953   0.04022   0.04554   0.01080  -0.05056
   6        5PY         0.18761  -0.08795   0.20173   0.02540  -0.12319
   7        5PZ        -0.00275  -0.08734  -0.11036   0.01297   0.22732
   8        6PX         0.28834  -0.17818   0.74613  -0.12259   1.25928
   9        6PY        -0.12771   0.04220   0.33353  -0.06391   0.63793
  10        6PZ         0.23261   1.08911  -0.12122  -0.36567   0.12394
  11        7PX         0.16055   0.10157   0.43041  -0.02902   0.59085
  12        7PY         2.58253   0.07966  -0.59300   0.05688  -0.34534
  13        7PZ         0.02212  -0.26861   0.02094   6.89440   0.56769
  14        8D 0        0.21661  -0.00938  -0.28735   0.00582  -0.10736
  15        8D+1        0.22553   0.04981   0.12034  -0.00232  -0.08228
  16        8D-1        0.07401  -0.22637   0.09545  -0.10320   0.11749
  17        8D+2       -0.03844   0.04275  -0.01615  -0.00395   0.07098
  18        8D-2        0.02171   0.04961   0.07140   0.00374   0.00131
  19        9D 0        0.72339   0.01433  -0.51835   0.07722  -0.49183
  20        9D+1        0.17653  -0.55555  -0.02581  -0.21311  -0.18439
  21        9D-1        0.04233  -0.16685   0.33328   0.16444  -0.73731
  22        9D+2       -4.02099  -0.00381   1.71393  -0.16907   1.77624
  23        9D-2        0.32194   0.00817   0.73752  -0.06481   0.89962
  24 2   O  1S         -0.04499  -0.00284   0.04851  -0.00740   0.01869
  25        2S         -0.62852  -0.01200   0.10254   0.00077   0.10131
  26        3S          4.33347   0.04474  -1.59860   0.17234  -0.90634
  27        4S         -2.39244  -0.03592   0.61776  -0.08425   1.09605
  28        5PX         0.05965  -0.00841  -0.09349  -0.01889   0.08916
  29        5PY         0.14878   0.07141   0.14212   0.00992   0.14695
  30        5PZ        -0.16944  -0.22637  -0.12350  -0.10558   0.11607
  31        6PX         0.43950   0.02532  -0.27603   0.05159   0.19035
  32        6PY        -2.39174  -0.02188   1.04211  -0.12034   0.88163
  33        6PZ         0.33041  -0.00298   0.06162   0.34720  -0.22829
  34        7PX        -0.68534   0.03335   0.18215   0.00390   0.16294
  35        7PY        -0.53422  -0.00913   0.13478  -0.01794  -0.07821
  36        7PZ        -0.41366  -0.65704  -0.02721  -2.96973  -0.03946
  37        8D 0        0.02402  -0.02578   0.04735  -0.00238  -0.08597
  38        8D+1        0.05546   0.29093   0.28985   0.10492   0.05575
  39        8D-1       -0.06855   0.08899   0.13575  -0.01541  -0.28355
  40        8D+2       -0.01140  -0.07058   0.25143  -0.00423  -0.04363
  41        8D-2        0.08830  -0.08009   0.03414   0.01716  -0.05165
  42        9D 0       -0.04254  -0.00275   0.26117   0.00493  -0.04120
  43        9D+1        0.28997  -0.43943   0.01753  -0.16250   0.00821
  44        9D-1        0.22079   0.28446   0.02658   0.06245   0.32589
  45        9D+2       -0.70451  -0.11842   0.29807  -0.06301   0.23722
  46        9D-2       -0.63199  -0.08130   0.37693  -0.07237   0.25257
  47 3   O  1S         -0.04331  -0.00240   0.05267  -0.00549   0.02403
  48        2S         -0.42801  -0.01690   0.40558  -0.02951   0.38714
  49        3S          3.49559   0.09785  -3.41877   0.35128  -3.26356
  50        4S         -2.95363   0.05890  -0.77081   0.06719  -0.74167
  51        5PX        -0.10967  -0.13106  -0.05032  -0.00404  -0.16813
  52        5PY         0.08559   0.00487  -0.24322   0.00406  -0.01433
  53        5PZ         0.09601  -0.08568  -0.09569  -0.14361   0.04725
  54        6PX         0.09594  -0.06828   1.30296  -0.12190   0.85324
  55        6PY        -2.36713  -0.09932   1.35434  -0.12666   1.03268
  56        6PZ        -0.52011   0.19746   0.00343   0.68735   0.17868
  57        7PX         0.68825   0.11741   0.00814  -0.00259   0.01537
  58        7PY        -0.36537  -0.00844   0.45811  -0.00652   0.20227
  59        7PZ        -0.03187   0.27497  -0.08425  -3.06650  -0.09517
  60        8D 0        0.01122  -0.06439  -0.04576   0.00969  -0.05751
  61        8D+1        0.12345   0.10156   0.30625  -0.10447   0.36332
  62        8D-1        0.04224   0.16877  -0.01818  -0.01475  -0.30578
  63        8D+2       -0.06217   0.06136  -0.00959  -0.01595  -0.14933
  64        8D-2       -0.06319  -0.08498   0.03754   0.00770  -0.04139
  65        9D 0       -0.03562  -0.09266   0.26796  -0.02334   0.03763
  66        9D+1        0.17338  -0.24207   0.15349   0.03553  -0.19615
  67        9D-1        0.19847  -0.30286   0.00759  -0.03964   0.39904
  68        9D+2       -0.77072   0.00699   0.19856  -0.03097  -0.00039
  69        9D-2        0.61281  -0.03901  -0.39807   0.06082  -0.32822
  70 4   O  1S          0.00131   0.00275  -0.01381   0.00199   0.00767
  71        2S         -0.09346   0.00309   0.19952  -0.02001   0.05586
  72        3S         -1.52709   0.03594   0.29674  -0.04236   0.59777
  73        4S          1.76541   0.07264  -1.04958   0.12644  -0.33226
  74        5PX         0.05436   0.08977   0.17089   0.00319   0.01606
  75        5PY        -0.15141  -0.08112   0.11418   0.01247  -0.05973
  76        5PZ        -0.09608   0.29882  -0.21636  -0.16585   0.10317
  77        6PX         0.10392  -0.06371   0.16662  -0.02793   0.25609
  78        6PY         0.12412   0.05210  -0.33276   0.01802   0.08475
  79        6PZ        -0.14773  -0.69016   0.41509   0.57854  -0.32195
  80        7PX        -0.00460  -0.00108  -0.02444   0.03145  -0.06177
  81        7PY         0.15610   0.02671  -0.03137  -0.00644   0.08532
  82        7PZ         0.51016  -0.01973   0.21958  -2.49327  -0.72126
  83        8D 0        0.02413  -0.03049  -0.05186   0.01351  -0.01257
  84        8D+1       -0.08889   0.15872   0.05436  -0.03891  -0.10619
  85        8D-1        0.31967  -0.07266  -0.27214  -0.00102   0.08755
  86        8D+2        0.00332   0.05910  -0.10944   0.01454   0.03342
  87        8D-2       -0.20167   0.02453   0.14885  -0.00097  -0.15884
  88        9D 0       -0.29201  -0.04458   0.21282  -0.02503   0.14266
  89        9D+1        0.05130   0.17853  -0.06551   0.05062   0.05783
  90        9D-1        0.05664  -0.74913   0.42721  -0.07775  -0.17135
  91        9D+2       -0.00290   0.01237   0.11178  -0.00847   0.13164
  92        9D-2       -0.01566  -0.08223  -0.04691   0.00638  -0.07780
                          31        32        33        34        35
     Eigenvalues --     0.00000   0.00000   0.00000   0.00000   0.00000
   1 1   N  1S         -0.01596  -0.04575   0.05516   0.01483  -0.01207
   2        2S         -0.04340  -0.34323   0.31279   0.11109  -0.73000
   3        3S          1.98600   6.18516  -4.74243  -1.50805   5.75876
   4        4S          0.25076   4.09596  -2.01599  -0.73133   4.30924
   5        5PX         0.08908   0.09369   0.21250   0.03731   0.12824
   6        5PY        -0.08017   0.36281   0.01869   0.02103  -0.02559
   7        5PZ         0.04897  -0.02658  -0.05684   0.18303   0.04260
   8        6PX        -0.51120   2.37460  -1.75078  -0.45266   0.39198
   9        6PY         0.18440   1.24739  -0.86552  -0.25496   0.41211
  10        6PZ         0.37216  -0.37505   0.32284  -0.02394   0.17152
  11        7PX        -0.11116   1.02629  -0.54760  -0.15572   0.13345
  12        7PY        -0.40604   0.65657  -0.01774  -0.00949   0.32497
  13        7PZ         0.63829   0.06073  -0.30155   0.26094  -0.01726
  14        8D 0        0.01416  -0.09934   0.23972   0.06628  -0.12221
  15        8D+1        0.35554  -0.21074   0.00536  -0.07421  -0.05084
  16        8D-1        0.03631   0.24001   0.07701  -0.04391  -0.08608
  17        8D+2       -0.18019  -0.24281   0.05348   0.00826   0.15841
  18        8D-2       -0.09508   0.00206  -0.08863  -0.02078  -0.06866
  19        9D 0       -0.31947  -0.41282   0.46127   0.15704  -0.56605
  20        9D+1        0.26142   0.02791  -1.19259   3.46200   0.25858
  21        9D-1       -0.23442  -0.18157  -0.25337  -0.37605   0.11314
  22        9D+2        0.79071   0.62745  -1.27082  -0.35917   0.14460
  23        9D-2       -0.52234   1.67016  -0.92306  -0.25268   0.29244
  24 2   O  1S          0.02271   0.01042  -0.04814  -0.01306   0.04127
  25        2S          0.23289   0.26479   0.01012  -0.01919   0.01981
  26        3S         -1.80741  -0.15099   0.87386   0.33280  -1.42867
  27        4S         -0.09711  -0.94852  -0.10963   0.06483  -1.78923
  28        5PX         0.06572  -0.10802   0.08195  -0.00092   0.32628
  29        5PY        -0.27984   0.14416   0.10813   0.02870  -0.24806
  30        5PZ        -0.08263   0.10608   0.07672  -0.37940   0.04936
  31        6PX        -0.59096  -0.32055   0.19150   0.10503  -1.03272
  32        6PY         0.66060   0.48492  -0.88450  -0.28088   0.89465
  33        6PZ         0.28368   0.03197  -0.85190   2.73907  -0.14540
  34        7PX        -0.10086  -0.35110   0.17165   0.05638  -0.38543
  35        7PY         0.15616  -0.25177  -0.21437  -0.04814   0.03757
  36        7PZ        -0.59448  -0.03841   0.13544   0.00597   0.29228
  37        8D 0       -0.07803  -0.13653   0.18673   0.04374   0.01932
  38        8D+1        0.10213   0.09467  -0.01469  -0.27821   0.13635
  39        8D-1        0.06098  -0.01510  -0.14899   0.16719   0.08214
  40        8D+2       -0.25299  -0.11781  -0.06511  -0.00729  -0.02920
  41        8D-2       -0.00125   0.02986   0.01939  -0.00104   0.11550
  42        9D 0        0.08472   0.37835  -0.01653  -0.01626   0.25400
  43        9D+1        0.11020  -0.28846  -0.37806   0.89359  -0.12342
  44        9D-1       -0.03540  -0.04704   0.24713  -0.91520   0.04880
  45        9D+2        0.10476  -0.19112  -0.32134  -0.06600  -0.30155
  46        9D-2        0.20763   0.32488  -0.23807  -0.07355   0.00042
  47 3   O  1S          0.01933   0.07295  -0.04783  -0.01356   0.02361
  48        2S          0.24568   0.55665  -0.50789  -0.15827   0.48561
  49        3S         -0.78860  -4.63479   3.89801   1.14001  -2.39557
  50        4S          0.45802  -4.12149   2.12778   0.66030  -2.66778
  51        5PX         0.01487   0.03546   0.04504   0.02168  -0.23640
  52        5PY        -0.05097   0.00640   0.05183   0.01177  -0.02667
  53        5PZ         0.21895   0.20569  -0.12406   0.35691  -0.03678
  54        6PX         0.04180   2.45031  -1.69041  -0.49660   1.56134
  55        6PY         0.60338   1.14917  -1.14549  -0.34644   0.88375
  56        6PZ        -0.89825   0.12482   0.80158  -2.17073  -0.13994
  57        7PX        -0.00435   0.67908  -0.09977  -0.04994   0.29830
  58        7PY         0.06189   0.16087  -0.22564  -0.06168   0.13438
  59        7PZ         0.30176  -0.11161   0.15224  -0.35824  -0.18044
  60        8D 0       -0.11186  -0.09099  -0.06288  -0.00510  -0.00652
  61        8D+1       -0.01508   0.21969  -0.00877  -0.03293   0.05005
  62        8D-1        0.15779   0.18202  -0.07467  -0.13022   0.11440
  63        8D+2        0.13212  -0.21671   0.24023   0.03274   0.18383
  64        8D-2       -0.06962  -0.00172   0.10578   0.03101   0.12293
  65        9D 0       -0.04773   0.18159  -0.22813  -0.05072   0.10906
  66        9D+1        0.11662  -0.34503  -0.10191   1.08638  -0.00246
  67        9D-1        0.37027  -0.29967   0.03949   1.27384   0.08832
  68        9D+2        0.27970  -0.31406   0.14799   0.03835  -0.12783
  69        9D-2       -0.27287  -0.33032   0.37026   0.11332  -0.19248
  70 4   O  1S         -0.00684   0.02335  -0.02151  -0.00934   0.04967
  71        2S          0.14349   0.11587  -0.03474  -0.00856   0.07326
  72        3S          0.07408  -0.38089  -0.13254   0.01666  -1.13955
  73        4S         -0.63950  -0.64271   0.55182   0.18211  -0.89077
  74        5PX        -0.07687  -0.05505   0.27354   0.05048   0.06726
  75        5PY         0.02101   0.06759   0.01615   0.00449   0.01387
  76        5PZ        -0.20525   0.15482  -0.08950   0.12643   0.19442
  77        6PX        -0.13392   0.49926  -0.48312  -0.11621   0.08848
  78        6PY        -0.18658  -0.50687   0.38136   0.12820  -0.80670
  79        6PZ         0.08060  -0.03903  -0.08903  -0.25349  -0.30644
  80        7PX        -0.01143  -0.05369   0.01077   0.01683  -0.03893
  81        7PY        -0.01409  -0.24522   0.09402   0.04355  -0.25781
  82        7PZ        -0.57650  -0.07366   0.06352  -0.08420   0.20477
  83        8D 0       -0.02519   0.05040  -0.00781  -0.00317   0.01085
  84        8D+1        0.17240   0.17102  -0.09333   0.16316  -0.14733
  85        8D-1       -0.06079  -0.09271  -0.09574  -0.04994  -0.02943
  86        8D+2        0.00352  -0.21074   0.06470  -0.00145  -0.01748
  87        8D-2        0.01031   0.16435   0.11239   0.01978   0.23580
  88        9D 0        0.13754   0.24722  -0.45518  -0.11637   0.22867
  89        9D+1       -0.17010   0.01097   0.39616  -0.76565   0.01825
  90        9D-1        0.23747   0.32092   0.08326  -0.30584   0.01292
  91        9D+2        0.04367   0.17205   0.01861  -0.01694   0.31032
  92        9D-2        0.03181   0.25539  -0.14771  -0.03706   0.09435
                          36        37        38        39        40
     Eigenvalues --     0.00000   0.00000   0.00000   0.00000   0.00000
   1 1   N  1S          0.03384  -0.00621  -0.02680   0.09399   0.10519
   2        2S          0.04316  -0.67368   0.24595  -0.15297   0.79526
   3        3S         -0.35644   3.95053   0.72868  -8.88987  -3.61753
   4        4S          0.49784   3.01281  -0.46754  -4.11252  -4.01018
   5        5PX        -0.01039  -0.04144  -0.24275   0.05754   0.44215
   6        5PY        -0.03901   0.23370   0.22240  -0.14968   0.17736
   7        5PZ        -0.27396   0.12196  -0.06597   0.03453   0.14999
   8        6PX         0.91552   0.61227  -0.42087  -0.80347  -1.31985
   9        6PY         0.59983   0.22426   1.73154  -2.10855   2.14576
  10        6PZ         0.32989  -0.82998   0.35469   0.13729  -0.63157
  11        7PX         0.35153   0.36658  -0.30175  -0.55568  -0.75707
  12        7PY         0.61007   0.38096   0.87788  -0.47100   1.41047
  13        7PZ        -0.07832  -0.03825  -0.00149   0.10888   0.05825
  14        8D 0        0.14210  -0.07986  -0.07218   0.08229   0.17914
  15        8D+1       -0.17531   0.09929  -0.10448  -0.01130   0.15533
  16        8D-1        0.12618   0.13942  -0.16112  -0.07931   0.07713
  17        8D+2        0.20966   0.05895  -0.04019  -0.02184   0.07898
  18        8D-2       -0.08652  -0.03252   0.19684  -0.13388  -0.15980
  19        9D 0       -0.05106  -0.45538  -0.32243   0.77519   0.43347
  20        9D+1       -0.28775   0.29984  -0.06997   0.04088   0.36672
  21        9D-1       -0.03757   0.32011   0.27466  -0.05121   0.15297
  22        9D+2       -0.10055  -0.42391   1.64388  -2.64880   2.22025
  23        9D-2        0.52790   0.30338  -0.05749  -0.50844  -0.50013
  24 2   O  1S          0.00930   0.01471   0.04844  -0.05299  -0.00299
  25        2S         -0.46637   0.02686  -0.11434  -0.68625   0.45741
  26        3S          1.15135  -0.37933  -1.54047   3.71448  -1.94457
  27        4S          0.22528  -1.64848  -0.83258   2.18392   0.32668
  28        5PX         0.08506  -0.01101  -0.01906  -0.07786   0.24638
  29        5PY        -0.16407  -0.02457   0.33009   0.15574  -0.15597
  30        5PZ         0.11474  -0.11416   0.11623   0.10190  -0.19085
  31        6PX         0.34313  -0.73413  -0.45929   1.62711  -0.06231
  32        6PY        -0.07268   0.14342   0.63320  -2.29038   0.90267
  33        6PZ        -0.23059   0.43700  -0.31542  -0.08709   0.55743
  34        7PX        -0.29718  -0.40125  -0.34420   0.56156  -0.05556
  35        7PY        -0.14720  -0.01618  -0.08310  -0.24727  -0.34864
  36        7PZ        -0.08072  -0.12610  -0.05079  -0.10701  -0.10657
  37        8D 0        0.00674   0.00369   0.01740   0.08098  -0.18764
  38        8D+1       -0.05021  -0.08049  -0.08384   0.15480  -0.10668
  39        8D-1        0.17572  -0.14468   0.15631   0.16492   0.01830
  40        8D+2       -0.28225  -0.03371   0.04700   0.38525   0.02345
  41        8D-2       -0.02668  -0.24138  -0.03829  -0.15547   0.10285
  42        9D 0        0.05151   0.19337   0.08717  -0.51619  -0.15304
  43        9D+1       -0.06833   0.21860   0.00041  -0.14212   0.30879
  44        9D-1       -0.06516  -0.19711   0.07814  -0.07198  -0.36704
  45        9D+2        0.05280  -0.20654  -0.05485  -0.27811   0.08991
  46        9D-2       -0.01181   0.23572   0.29860  -0.66514   0.13809
  47 3   O  1S         -0.01225   0.05209   0.02103  -0.09943  -0.01115
  48        2S         -0.08654  -0.08242  -0.47676  -0.45420  -0.09804
  49        3S         -0.30562  -1.38238  -0.47334   5.04354   0.60650
  50        4S         -1.41968  -1.98369  -0.49069   3.15214   1.39862
  51        5PX        -0.13839  -0.05262   0.11972   0.17075   0.20934
  52        5PY        -0.00154   0.11115   0.13915  -0.02826  -0.22969
  53        5PZ         0.10830  -0.28469   0.09449   0.08283  -0.18740
  54        6PX         0.46165   1.01152   0.11260  -2.40314  -0.98975
  55        6PY        -0.07815   0.27779   0.53094  -2.12740   0.91664
  56        6PZ         0.21593   0.20282  -0.25385  -0.16991  -0.12250
  57        7PX         0.33244   0.40443   0.12115  -0.76141  -0.00728
  58        7PY        -0.08237   0.06935  -0.24138  -0.31954  -0.61808
  59        7PZ        -0.07825  -0.02646   0.19998   0.14131   0.18446
  60        8D 0        0.01272   0.08915   0.02974  -0.15934  -0.01073
  61        8D+1       -0.14093  -0.00192  -0.23921  -0.13164  -0.00426
  62        8D-1       -0.06793  -0.19814   0.18477   0.11099   0.00430
  63        8D+2       -0.47302   0.19790   0.27323  -0.02523  -0.05646
  64        8D-2        0.21070   0.11346   0.18937   0.15843   0.17992
  65        9D 0       -0.11523  -0.07059  -0.03500  -0.19264   0.03859
  66        9D+1        0.08859  -0.08853   0.14738   0.05055   0.05437
  67        9D-1        0.06155  -0.00191   0.04460  -0.06834  -0.27629
  68        9D+2        0.13942  -0.14946  -0.24151   0.18674   0.20963
  69        9D-2       -0.10250  -0.36263   0.02025   0.59209  -0.34884
  70 4   O  1S         -0.05268   0.00432   0.00480  -0.01285  -0.05934
  71        2S          0.05213   0.06496  -0.17082  -0.10826  -0.50420
  72        3S          0.67049  -0.87241   1.37823  -0.83501   3.45216
  73        4S          0.08516  -0.62489   1.96301   0.51540   3.75355
  74        5PX         0.03086  -0.12378  -0.04174  -0.04655   0.12349
  75        5PY         0.09533  -0.21963   0.04362  -0.21922   0.07238
  76        5PZ        -0.00676  -0.10415  -0.02523   0.02763  -0.06264
[...]
 Polarizability= 3.70196791D+01 3.74479103D-05 3.70096547D+01
                -5.47243886D-13-3.37964917D-11 2.05159611D+01
 Full mass-weighted force constant matrix:
 Low frequencies ---  -15.3857   -8.8488    0.0008    0.0011    0.0014   10.0582
 Low frequencies ---  697.1497  697.9144  833.1466
 Diagonal vibrational polarizability:
        7.8941852       7.8865589       0.3079964
 Harmonic frequencies (cm**-1), IR intensities (KM/Mole), Raman scattering
 activities (A**4/AMU), depolarization ratios for plane and unpolarized
 incident light, reduced masses (AMU), force constants (mDyne/A),
 and normal coordinates:
                      1                      2                      3
                     A'                     A'                     A"
 Frequencies --    697.1497               697.9144               833.1466
 Red. masses --     15.8432                15.8432                14.4084
 Frc consts  --      4.5367                 4.5467                 5.8926
 IR Inten    --      0.0538                 0.0497                 7.9443
  Atom  AN      X      Y      Z        X      Y      Z        X      Y      Z
     1   7     0.00  -0.28  -0.00    -0.28  -0.00   0.00    -0.00  -0.00   0.89
     2   8     0.48   0.35   0.00    -0.19   0.48  -0.00     0.00  -0.00  -0.26
     3   8    -0.48   0.36   0.00    -0.19  -0.47  -0.00    -0.00   0.00  -0.26
     4   8    -0.00  -0.47   0.00     0.63  -0.00  -0.00    -0.00   0.00  -0.26
                      4                      5                      6
                     A'                     A'                     A'
 Frequencies --   1071.3470              1389.8384              1390.4626
 Red. masses --     15.9949                14.5337                14.5338
 Frc consts  --     10.8166                16.5408                16.5557
 IR Inten    --      0.0011               566.4371               566.3795
  Atom  AN      X      Y      Z        X      Y      Z        X      Y      Z
     1   7     0.00   0.00  -0.00     0.86   0.01   0.00    -0.01   0.86   0.00
     2   8     0.50  -0.29   0.00    -0.33   0.14  -0.00     0.14  -0.17  -0.00
     3   8    -0.50  -0.29   0.00    -0.33  -0.14  -0.00    -0.14  -0.17  -0.00
     4   8     0.00   0.58   0.00    -0.09  -0.00  -0.00     0.00  -0.41  -0.00

 -------------------
 - Thermochemistry -
 -------------------
 Temperature   298.150 Kelvin.  Pressure   1.00000 Atm.
 Atom     1 has atomic number  7 and mass  14.00307
 Atom     2 has atomic number  8 and mass  15.99491
 Atom     3 has atomic number  8 and mass  15.99491
 Atom     4 has atomic number  8 and mass  15.99491
 Molecular mass:    61.98782 amu.
 Principal axes and moments of inertia in atomic units:
                           1         2         3
     Eigenvalues --   136.44748 136.64758 273.09506
           X            1.00000  -0.00163   0.00000
           Y            0.00163   1.00000   0.00000
           Z            0.00000  -0.00000   1.00000
 This molecule is an asymmetric top.
 Rotational symmetry number  1.
 Rotational temperatures (Kelvin)      0.63478     0.63385     0.31716
 Rotational constants (GHZ):          13.22664    13.20727     6.60847
 Zero-point vibrational energy      36365.6 (Joules/Mol)
                                    8.69159 (Kcal/Mol)
 Vibrational temperatures:   1003.04  1004.14  1198.71  1541.43  1999.67
          (Kelvin)           2000.57
 
 Zero-point correction=                           0.013851 (Hartree/Particle)
 Thermal correction to Energy=                    0.017024
 Thermal correction to Enthalpy=                  0.017968
 Thermal correction to Gibbs Free Energy=        -0.011655
 Sum of electronic and zero-point Energies=           -280.404170
 Sum of electronic and thermal Energies=              -280.400997
 Sum of electronic and thermal Enthalpies=            -280.400053
 Sum of electronic and thermal Free Energies=         -280.429676
 
                     E (Thermal)             CV                S
                      KCal/Mol        Cal/Mol-Kelvin    Cal/Mol-Kelvin
 Total                   10.682              8.751             62.347
 Electronic               0.000              0.000              0.000
 Translational            0.889              2.981             38.292
 Rotational               0.889              2.981             23.147
 Vibrational              8.905              2.790              0.908
                       Q            Log10(Q)             Ln(Q)
 Total Bot       0.229686D+06          5.361135         12.344470
 Total V=0       0.539658D+12         11.732118         27.014201
 Vib (Bot)       0.468744D-06         -6.329065        -14.573210
 Vib (V=0)       0.110133D+01          0.041919          0.096521
 Electronic      0.100000D+01          0.000000          0.000000
 Translational   0.191829D+08          7.282913         16.769528
 Rotational      0.255438D+05          4.407286         10.148152
 
                                                       NO3-_UB3LYP-aug-cc-pVDZ
                                                             IR Spectrum
 
     11                            1                                                                                                 
     33                            0                    8            6                                                               
     99                            7                    3            9                                                               
     00                            1                    3            7                                                               
 
     XX                                                 X            X                                                               
     XX                                                                                                                              
     XX                                                                                                                              
     XX                                                                                                                              
     XX                                                                                                                              
     XX                                                                                                                              
     XX                                                                                                                              
     XX                                                                                                                              
     XX                                                                                                                              
     XX                                                                                                                              
     XX                                                                                                                              
     XX                                                                                                                              
     XX                                                                                                                              
     XX                                                                                                                              
     XX                                                                                                                              
     XX                                                                                                                              
     XX                                                                                                                              
     XX                                                                                                                              
     XX                                                                                                                              
     XX                                                                                                                              
 
 ***** Axes restored to original set *****
 -------------------------------------------------------------------
 Center     Atomic                   Forces (Hartrees/Bohr)
 Number     Number              X              Y              Z
 -------------------------------------------------------------------
      1        7          -0.000085926   -0.000156351   -0.000000000
      2        8          -0.000019506    0.000265495   -0.000000000
      3        8           0.000233594    0.000126271    0.000000000
      4        8          -0.000128161   -0.000235415   -0.000000000
 -------------------------------------------------------------------
 Cartesian Forces:  Max     0.000265495 RMS     0.000142902
 Force constants in Cartesian coordinates: 
                1             2             3             4             5 
      1  0.741009D+00
      2  0.248443D-03  0.741323D+00
      3  0.000000D+00  0.000000D+00  0.284744D+00
      4 -0.363868D+00 -0.654795D-02  0.000000D+00  0.515020D+00
      5 -0.646100D-02 -0.130047D+00  0.000000D+00  0.110155D-01  0.127987D+00
      6  0.000000D+00  0.000000D+00 -0.949136D-01  0.000000D+00  0.000000D+00
      7 -0.194234D+00  0.104589D+00  0.000000D+00 -0.790807D-01  0.707256D-01
      8  0.104503D+00 -0.299670D+00  0.000000D+00  0.573489D-01  0.476811D-02
      9  0.000000D+00  0.000000D+00 -0.949142D-01  0.000000D+00  0.000000D+00
     10 -0.182907D+00 -0.982899D-01  0.000000D+00 -0.720711D-01 -0.752801D-01
     11 -0.982903D-01 -0.311606D+00  0.000000D+00 -0.618165D-01 -0.270855D-02
     12  0.000000D+00  0.000000D+00 -0.949162D-01  0.000000D+00  0.000000D+00
                6             7             8             9            10 
      6  0.316439D-01
      7  0.000000D+00  0.234007D+00
      8  0.000000D+00 -0.172954D+00  0.408987D+00
      9  0.315832D-01  0.000000D+00  0.000000D+00  0.316449D-01
     10  0.000000D+00  0.393076D-01  0.111025D-01  0.000000D+00  0.215670D+00
     11  0.000000D+00 -0.236083D-02 -0.114085D+00  0.000000D+00  0.162468D+00
     12  0.316864D-01  0.000000D+00  0.000000D+00  0.316860D-01  0.000000D+00
               11            12 
     11  0.428401D+00
     12  0.000000D+00  0.315438D-01
 FormGI is forming the generalized inverse of G from B-inverse, IUseBI=4.
 Force constants in internal coordinates: 
                1             2             3             4             5 
      1  0.515333D+00
      2  0.893656D-01  0.515320D+00
      3  0.896673D-01  0.896659D-01  0.516224D+00
      4  0.280329D-01  0.280338D-01 -0.568284D-01  0.242071D+00
      5  0.286527D-01 -0.566850D-01  0.284153D-01 -0.121036D+00  0.242553D+00
      6 -0.566856D-01  0.286512D-01  0.284131D-01 -0.121034D+00 -0.121516D+00
      7  0.000000D+00  0.000000D+00  0.000000D+00  0.000000D+00  0.000000D+00
                6             7 
      6  0.242551D+00
      7  0.000000D+00  0.135268D+00
 Leave Link  716 at Sun Aug  2 03:27:09 2020, MaxMem=   524288000 cpu:               0.2 elap:               0.0
 (Enter /home/ubuntu/g16/l103.exe)

 GradGradGradGradGradGradGradGradGradGradGradGradGradGradGradGradGradGrad
 Berny optimization.
 Red2BG is reusing G-inverse.
 Internal  Forces:  Max     0.000422312 RMS     0.000220306
 Search for a local minimum.
 Step number   1 out of a maximum of    2
 All quantities printed in internal units (Hartrees-Bohrs-Radians)
 Second derivative matrix not updated -- analytic derivatives used.
 The second derivative matrix:
                          R1        R2        R3        A1        A2
           R1           0.51533
           R2           0.08937   0.51532
           R3           0.08967   0.08967   0.51622
           A1           0.02803   0.02803  -0.05683   0.24207
           A2           0.02865  -0.05669   0.02842  -0.12104   0.24255
           A3          -0.05669   0.02865   0.02841  -0.12103  -0.12152
           D1          -0.00000  -0.00000  -0.00000   0.00000  -0.00000
                          A3        D1
           A3           0.24255
           D1          -0.00000   0.13527
 ITU=  0
     Eigenvalues ---    0.13527   0.30410   0.30424   0.48516   0.48579
     Eigenvalues ---    0.69476
 Angle between quadratic step and forces=  13.79 degrees.
 Linear search not attempted -- first point.
 Iteration  1 RMS(Cart)=  0.00061633 RMS(Int)=  0.00000020
 Iteration  2 RMS(Cart)=  0.00000018 RMS(Int)=  0.00000000
 ITry= 1 IFail=0 DXMaxC= 8.94D-04 DCOld= 1.00D+10 DXMaxT= 3.00D-01 DXLimC= 3.00D+00 Rises=F
 ClnCor:  largest displacement from symmetrization is 1.80D-15 for atom     1.
 Variable       Old X    -DE/DX   Delta X   Delta X   Delta X     New X
                                 (Linear)    (Quad)   (Total)
    R1        2.38575  -0.00001   0.00000   0.00001   0.00001   2.38576
    R2        2.38576  -0.00002   0.00000   0.00000   0.00000   2.38576
    R3        2.38542   0.00027   0.00000   0.00033   0.00033   2.38576
    A1        2.09550  -0.00042   0.00000  -0.00111  -0.00111   2.09439
    A2        2.09384   0.00021   0.00000   0.00056   0.00056   2.09440
    A3        2.09384   0.00021   0.00000   0.00055   0.00055   2.09440
    D1        3.14159  -0.00000   0.00000   0.00000   0.00000   3.14159
         Item               Value     Threshold  Converged?
 Maximum Force            0.000422     0.000450     YES
 RMS     Force            0.000220     0.000300     YES
 Maximum Displacement     0.000894     0.001800     YES
 RMS     Displacement     0.000616     0.001200     YES
 Predicted change in Energy=-3.967635D-07
 Optimization completed.
    -- Stationary point found.
                           ----------------------------
                           !   Optimized Parameters   !
                           ! (Angstroms and Degrees)  !
 --------------------------                            --------------------------
 ! Name  Definition              Value          Derivative Info.                !
 --------------------------------------------------------------------------------
 ! R1    R(1,2)                  1.2625         -DE/DX =    0.0                 !
 ! R2    R(1,3)                  1.2625         -DE/DX =    0.0                 !
 ! R3    R(1,4)                  1.2623         -DE/DX =    0.0003              !
 ! A1    A(2,1,3)              120.0636         -DE/DX =   -0.0004              !
 ! A2    A(2,1,4)              119.9681         -DE/DX =    0.0002              !
 ! A3    A(3,1,4)              119.9683         -DE/DX =    0.0002              !
 ! D1    D(2,1,4,3)            180.0            -DE/DX =    0.0                 !
 --------------------------------------------------------------------------------
 GradGradGradGradGradGradGradGradGradGradGradGradGradGradGradGradGradGrad

 Leave Link  103 at Sun Aug  2 03:27:09 2020, MaxMem=   524288000 cpu:               0.1 elap:               0.0
 (Enter /home/ubuntu/g16/l9999.exe)

 ----------------------------------------------------------------------

 Electric dipole moment (input orientation):
 (Debye = 10**-18 statcoulomb cm , SI units = C m)
                  (au)            (Debye)         (10**-30 SI)
   Tot        0.161976D-03      0.411703D-03      0.137329D-02
   x          0.818724D-04      0.208099D-03      0.694143D-03
   y          0.139761D-03      0.355238D-03      0.118495D-02
   z          0.000000D+00      0.000000D+00      0.000000D+00

 Dipole polarizability, Alpha (input orientation).
 (esu units = cm**3 , SI units = C**2 m**2 J**-1)
 Alpha(0;0):
               (au)            (10**-24 esu)      (10**-40 SI)
   iso        0.315151D+02      0.467006D+01      0.519614D+01
   aniso      0.164987D+02      0.244486D+01      0.272027D+01
   xx         0.370174D+02      0.548541D+01      0.610334D+01
   yx        -0.421514D-02     -0.624620D-03     -0.694983D-03
   yy         0.370120D+02      0.548461D+01      0.610245D+01
   zx         0.000000D+00      0.000000D+00      0.000000D+00
   zy         0.000000D+00      0.000000D+00      0.000000D+00
   zz         0.205160D+02      0.304015D+01      0.338263D+01

 ----------------------------------------------------------------------

 Dipole orientation:
     7         -0.66702781          0.39074591         -1.78491850
     8          1.07993051         -0.63262494         -0.52291677
     8         -2.48461654          1.45549215         -0.66486755
     8         -0.59633957          0.34933663         -4.16893407

 Electric dipole moment (dipole orientation):
 (Debye = 10**-18 statcoulomb cm , SI units = C m)
                  (au)            (Debye)         (10**-30 SI)
   Tot        0.161976D-03      0.411703D-03      0.137329D-02
   x          0.000000D+00      0.000000D+00      0.000000D+00
   y          0.000000D+00      0.000000D+00      0.000000D+00
   z          0.161976D-03      0.411703D-03      0.137329D-02

 Dipole polarizability, Alpha (dipole orientation).
 (esu units = cm**3 , SI units = C**2 m**2 J**-1)
 Alpha(0;0):
               (au)            (10**-24 esu)      (10**-40 SI)
   iso        0.315151D+02      0.467006D+01      0.519614D+01
   aniso      0.164987D+02      0.244486D+01      0.272027D+01
   xx         0.328032D+02      0.486093D+01      0.540851D+01
   yx        -0.719786D+01     -0.106661D+01     -0.118677D+01
   yy         0.247325D+02      0.366497D+01      0.407783D+01
   zx         0.262761D-03      0.389372D-04      0.433235D-04
   zy        -0.153926D-03     -0.228095D-04     -0.253790D-04
   zz         0.370097D+02      0.548427D+01      0.610207D+01

 ----------------------------------------------------------------------
 1\1\GINC-LC06-1-2\Freq\UB3LYP\Aug-CC-pVDZ\N1O3(1-)\UBUNTU\02-Aug-2020\
 0\\#P Geom=AllCheck Guess=TCheck SCRF=Check GenChk UB3LYP/Aug-CC-pVDZ 
 Freq\\NO3-_UB3LYP-aug-cc-pVDZ\\-1,1\N,-0.8304013931,-0.6082214532,0.\O
 ,0.4316061617,-0.5735349348,0.\O,-1.492639535,0.4666341966,0.\O,-1.430
 6652336,-1.7186778086,0.\\Version=ES64L-G16RevA.03\State=1-A'\HF=-280.
 4180207\S2=0.\S2-1=0.\S2A=0.\RMSD=1.705e-09\RMSF=1.429e-04\ZeroPoint=0
 .0138509\Thermal=0.0170235\Dipole=0.0000819,0.0001398,0.\DipoleDeriv=2
 .1651218,-0.0001884,0.,-0.0001888,2.164874,0.,0.,0.,0.0713087,-1.58914
 74,-0.030277,0.,-0.0292732,-0.5207071,0.,0.,0.,-0.3571062,-0.8139735,0
 .4782212,0.,0.477221,-1.2958771,0.,0.,0.,-0.3571089,-0.7620009,-0.4477
 558,0.,-0.447759,-1.3482898,0.,0.,0.,-0.3570936\Polar=37.0173791,-0.00
 42151,37.0119546,0.,0.,20.5159611\Quadrupole=-1.9452439,-1.944184,3.88
 94279,0.0008303,0.,0.\PG=CS [SG(N1O3)]\NImag=0\\0.74100876,0.00024844,
 0.74132273,0.,0.,0.28474396,-0.36386794,-0.00654795,0.,0.51501977,-0.0
 0646100,-0.13004674,0.,0.01101553,0.12798718,0.,0.,-0.09491356,0.,0.,0
 .03164393,-0.19423431,0.10458944,0.,-0.07908069,0.07072560,0.,0.234007
 36,0.10450283,-0.29966953,0.,0.05734888,0.00476811,0.,-0.17295421,0.40
 898691,0.,0.,-0.09491415,0.,0.,0.03158319,0.,0.,0.03164492,-0.18290651
 ,-0.09828992,0.,-0.07207114,-0.07528013,0.,0.03930763,0.01110249,0.,0.
 21567002,-0.09829028,-0.31160646,0.,-0.06181646,-0.00270855,0.,-0.0023
 6083,-0.11408549,0.,0.16246756,0.42840050,0.,0.,-0.09491624,0.,0.,0.03
 168644,0.,0.,0.03168605,0.,0.,0.03154375\\0.00008593,0.00015635,0.,0.0
 0001951,-0.00026549,0.,-0.00023359,-0.00012627,0.,0.00012816,0.0002354
 2,0.\\\@


 The cat could very well be man's best friend
 but would never stoop to admitting it.
                               -- Doug Larson
 Job cpu time:       0 days  0 hours  1 minutes 59.8 seconds.
 Elapsed time:       0 days  0 hours  0 minutes 17.4 seconds.
 File lengths (MBytes):  RWF=     13 Int=      0 D2E=      0 Chk=      2 Scr=      1
 Normal termination of Gaussian 16 at Sun Aug  2 03:27:09 2020.
