 Entering Gaussian System, Link 0=/home/ubuntu/g16/g16
 Input=PhN2+_UB3LYP-aug-cc-pVDZ-Opt.gjf
 Output=PhN2+_UB3LYP-aug-cc-pVDZ-Opt.log
 Initial command:
 /home/ubuntu/g16/l1.exe "/home/ubuntu/g16/Gau-19520.inp" -scrdir="/home/ubuntu/g16/"
 Entering Link 1 = /home/ubuntu/g16/l1.exe PID=     19522.
  
 Copyright (c) 1988,1990,1992,1993,1995,1998,2003,2009,2016,
            Gaussian, Inc.  All Rights Reserved.
  
 This is part of the Gaussian(R) 16 program.  It is based on
 the Gaussian(R) 09 system (copyright 2009, Gaussian, Inc.),
 the Gaussian(R) 03 system (copyright 2003, Gaussian, Inc.),
 the Gaussian(R) 98 system (copyright 1998, Gaussian, Inc.),
 the Gaussian(R) 94 system (copyright 1995, Gaussian, Inc.),
 the Gaussian 92(TM) system (copyright 1992, Gaussian, Inc.),
 the Gaussian 90(TM) system (copyright 1990, Gaussian, Inc.),
 the Gaussian 88(TM) system (copyright 1988, Gaussian, Inc.),
 the Gaussian 86(TM) system (copyright 1986, Carnegie Mellon
 University), and the Gaussian 82(TM) system (copyright 1983,
 Carnegie Mellon University). Gaussian is a federally registered
 trademark of Gaussian, Inc.
  
 This software contains proprietary and confidential information,
 including trade secrets, belonging to Gaussian, Inc.
  
 This software is provided under written license and may be
 used, copied, transmitted, or stored only in accord with that
 written license.
  
 The following legend is applicable only to US Government
 contracts under FAR:
  
                    RESTRICTED RIGHTS LEGEND
  
 Use, reproduction and disclosure by the US Government is
 subject to restrictions as set forth in subparagraphs (a)
 and (c) of the Commercial Computer Software - Restricted
 Rights clause in FAR 52.227-19.
  
 Gaussian, Inc.
 340 Quinnipiac St., Bldg. 40, Wallingford CT 06492
  
  
 ---------------------------------------------------------------
 Warning -- This program may not be used in any manner that
 competes with the business of Gaussian, Inc. or will provide
 assistance to any competitor of Gaussian, Inc.  The licensee
 of this program is prohibited from giving any competitor of
 Gaussian, Inc. access to this program.  By using this program,
 the user acknowledges that Gaussian, Inc. is engaged in the
 business of creating and licensing software in the field of
 computational chemistry and represents and warrants to the
 licensee that it is not a competitor of Gaussian, Inc. and that
 it will not use this program in any manner prohibited above.
 ---------------------------------------------------------------
  

 Cite this work as:
 Gaussian 16, Revision A.03,
 M. J. Frisch, G. W. Trucks, H. B. Schlegel, G. E. Scuseria, 
 M. A. Robb, J. R. Cheeseman, G. Scalmani, V. Barone, 
 G. A. Petersson, H. Nakatsuji, X. Li, M. Caricato, A. V. Marenich, 
 J. Bloino, B. G. Janesko, R. Gomperts, B. Mennucci, H. P. Hratchian, 
 J. V. Ortiz, A. F. Izmaylov, J. L. Sonnenberg, D. Williams-Young, 
 F. Ding, F. Lipparini, F. Egidi, J. Goings, B. Peng, A. Petrone, 
 T. Henderson, D. Ranasinghe, V. G. Zakrzewski, J. Gao, N. Rega, 
 G. Zheng, W. Liang, M. Hada, M. Ehara, K. Toyota, R. Fukuda, 
 J. Hasegawa, M. Ishida, T. Nakajima, Y. Honda, O. Kitao, H. Nakai, 
 T. Vreven, K. Throssell, J. A. Montgomery, Jr., J. E. Peralta, 
 F. Ogliaro, M. J. Bearpark, J. J. Heyd, E. N. Brothers, K. N. Kudin, 
 V. N. Staroverov, T. A. Keith, R. Kobayashi, J. Normand, 
 K. Raghavachari, A. P. Rendell, J. C. Burant, S. S. Iyengar, 
 J. Tomasi, M. Cossi, J. M. Millam, M. Klene, C. Adamo, R. Cammi, 
 J. W. Ochterski, R. L. Martin, K. Morokuma, O. Farkas, 
 J. B. Foresman, and D. J. Fox, Gaussian, Inc., Wallingford CT, 2016.
 
 ******************************************
 Gaussian 16:  ES64L-G16RevA.03 25-Dec-2016
                20-Mar-2019 
 ******************************************
 %chk=PhN2+_UB3LYP-aug-cc-pVDZ-Opt.chk
 %mem=500MW
 %nproc=7
 Will use up to    7 processors via shared memory.
 ----------------------------------------------------------------------
 #p opt=(maxcycles=777) freq ub3lyp/aug-cc-pVDZ pop=(Bonding,AllOrbital
 s,mk,no,nboread)
 ----------------------------------------------------------------------
 1/6=777,18=20,19=15,26=3,38=1/1,3;
 2/9=110,12=2,17=6,18=5,40=1/2;
 3/5=16,7=10,11=2,25=1,30=1,71=1,74=-5,116=2/1,2,3;
 4//1;
 5/5=2,38=5/2;
 6/7=2,8=2,9=2,10=2,15=8,20=1,22=-1,27=20,28=1,31=1,40=2,96=-1/1,2,7;
 7//1,2,3,16;
 1/6=777,18=20,19=15,26=3/3(2);
 2/9=110/2;
 99//99;
 2/9=110/2;
 3/5=16,7=10,11=2,25=1,30=1,71=1,74=-5,116=2/1,2,3;
 4/5=5,16=3,69=1/1;
 5/5=2,38=5/2;
 7//1,2,3,16;
 1/6=777,18=20,19=15,26=3/3(-5);
 2/9=110/2;
 6/7=2,8=2,9=2,10=2,15=8,19=2,20=1,22=-1,27=20,28=1,31=1,40=2,96=-1/1,2,7;
 99/9=1/99;
 Leave Link    1 at Wed Mar 20 21:03:00 2019, MaxMem=   524288000 cpu:               1.2 elap:               0.2
 (Enter /home/ubuntu/g16/l101.exe)
 ------------------------
 PhN2+_UB3LYP-aug-cc-pVDZ
 ------------------------
 Symbolic Z-matrix:
 Charge =  1 Multiplicity = 1
 C                    -1.13003   0.13089   0.7705 
 C                     0.1934    0.25153   0.36686 
 C                     0.53556   1.40938  -0.36361 
 C                    -0.37393   2.43397  -0.70144 
 C                    -1.68664   2.27477  -0.27686 
 C                    -2.05992   1.13488   0.45389 
 H                    -1.44058  -0.74631   1.33618 
 H                     0.9402   -0.50638   0.59867 
 H                    -0.0504    3.30545  -1.2683 
 H                    -2.4234    3.0409   -0.51523 
 N                     1.84903   1.55158  -0.77151 
 N                     2.90729   1.66706  -1.09963 
 H                    -3.09357   1.02703   0.78293 
 
 ITRead=  0  0  0  0  0  0  0  0  0  0  0  0  0
 MicOpt= -1 -1 -1 -1 -1 -1 -1 -1 -1 -1 -1 -1 -1
 NAtoms=     13 NQM=       13 NQMF=       0 NMMI=      0 NMMIF=      0
                NMic=       0 NMicF=      0.
                    Isotopes and Nuclear Properties:
 (Nuclear quadrupole moments (NQMom) in fm**2, nuclear magnetic moments (NMagM)
  in nuclear magnetons)

  Atom         1           2           3           4           5           6           7           8           9          10
 IAtWgt=          12          12          12          12          12          12           1           1           1           1
 AtmWgt=  12.0000000  12.0000000  12.0000000  12.0000000  12.0000000  12.0000000   1.0078250   1.0078250   1.0078250   1.0078250
 NucSpn=           0           0           0           0           0           0           1           1           1           1
 AtZEff=  -0.0000000  -0.0000000  -0.0000000  -0.0000000  -0.0000000  -0.0000000  -0.0000000  -0.0000000  -0.0000000  -0.0000000
 NQMom=    0.0000000   0.0000000   0.0000000   0.0000000   0.0000000   0.0000000   0.0000000   0.0000000   0.0000000   0.0000000
 NMagM=    0.0000000   0.0000000   0.0000000   0.0000000   0.0000000   0.0000000   2.7928460   2.7928460   2.7928460   2.7928460
 AtZNuc=   6.0000000   6.0000000   6.0000000   6.0000000   6.0000000   6.0000000   1.0000000   1.0000000   1.0000000   1.0000000

  Atom        11          12          13
 IAtWgt=          14          14           1
 AtmWgt=  14.0030740  14.0030740   1.0078250
 NucSpn=           2           2           1
 AtZEff=  -0.0000000  -0.0000000  -0.0000000
 NQMom=    2.0440000   2.0440000   0.0000000
 NMagM=    0.4037610   0.4037610   2.7928460
 AtZNuc=   7.0000000   7.0000000   1.0000000
 Leave Link  101 at Wed Mar 20 21:03:01 2019, MaxMem=   524288000 cpu:               1.1 elap:               0.3
 (Enter /home/ubuntu/g16/l103.exe)

 GradGradGradGradGradGradGradGradGradGradGradGradGradGradGradGradGradGrad
 Berny optimization.
 Initialization pass.
                           ----------------------------
                           !    Initial Parameters    !
                           ! (Angstroms and Degrees)  !
 --------------------------                            --------------------------
 ! Name  Definition              Value          Derivative Info.                !
 --------------------------------------------------------------------------------
 ! R1    R(1,2)                  1.3889         estimate D2E/DX2                !
 ! R2    R(1,6)                  1.4046         estimate D2E/DX2                !
 ! R3    R(1,7)                  1.089          estimate D2E/DX2                !
 ! R4    R(2,3)                  1.4111         estimate D2E/DX2                !
 ! R5    R(2,8)                  1.089          estimate D2E/DX2                !
 ! R6    R(3,4)                  1.4111         estimate D2E/DX2                !
 ! R7    R(3,11)                 1.3827         estimate D2E/DX2                !
 ! R8    R(4,5)                  1.3888         estimate D2E/DX2                !
 ! R9    R(4,9)                  1.0888         estimate D2E/DX2                !
 ! R10   R(5,6)                  1.4045         estimate D2E/DX2                !
 ! R11   R(5,10)                 1.0893         estimate D2E/DX2                !
 ! R12   R(6,13)                 1.0901         estimate D2E/DX2                !
 ! R13   R(11,12)                1.114          estimate D2E/DX2                !
 ! A1    A(2,1,6)              120.2145         estimate D2E/DX2                !
 ! A2    A(2,1,7)              119.5162         estimate D2E/DX2                !
 ! A3    A(6,1,7)              120.2691         estimate D2E/DX2                !
 ! A4    A(1,2,3)              116.9211         estimate D2E/DX2                !
 ! A5    A(1,2,8)              122.0832         estimate D2E/DX2                !
 ! A6    A(3,2,8)              120.9956         estimate D2E/DX2                !
 ! A7    A(2,3,4)              124.2938         estimate D2E/DX2                !
 ! A8    A(2,3,11)             117.8677         estimate D2E/DX2                !
 ! A9    A(4,3,11)             117.8382         estimate D2E/DX2                !
 ! A10   A(3,4,5)              116.9232         estimate D2E/DX2                !
 ! A11   A(3,4,9)              120.9514         estimate D2E/DX2                !
 ! A12   A(5,4,9)              122.1254         estimate D2E/DX2                !
 ! A13   A(4,5,6)              120.2182         estimate D2E/DX2                !
 ! A14   A(4,5,10)             119.4571         estimate D2E/DX2                !
 ! A15   A(6,5,10)             120.3247         estimate D2E/DX2                !
 ! A16   A(1,6,5)              121.4286         estimate D2E/DX2                !
 ! A17   A(1,6,13)             119.2739         estimate D2E/DX2                !
 ! A18   A(5,6,13)             119.2975         estimate D2E/DX2                !
 ! A19   L(3,11,12,9,-1)       179.9706         estimate D2E/DX2                !
 ! A20   L(3,11,12,9,-2)       179.9454         estimate D2E/DX2                !
 ! D1    D(6,1,2,3)             -0.1944         estimate D2E/DX2                !
 ! D2    D(6,1,2,8)            179.7759         estimate D2E/DX2                !
 ! D3    D(7,1,2,3)            179.9594         estimate D2E/DX2                !
 ! D4    D(7,1,2,8)             -0.0702         estimate D2E/DX2                !
 ! D5    D(2,1,6,5)              0.2962         estimate D2E/DX2                !
 ! D6    D(2,1,6,13)          -179.6771         estimate D2E/DX2                !
 ! D7    D(7,1,6,5)           -179.8588         estimate D2E/DX2                !
 ! D8    D(7,1,6,13)             0.1679         estimate D2E/DX2                !
 ! D9    D(1,2,3,4)              0.0102         estimate D2E/DX2                !
 ! D10   D(1,2,3,11)           179.7925         estimate D2E/DX2                !
 ! D11   D(8,2,3,4)           -179.9605         estimate D2E/DX2                !
 ! D12   D(8,2,3,11)            -0.1782         estimate D2E/DX2                !
 ! D13   D(2,3,4,5)              0.0783         estimate D2E/DX2                !
 ! D14   D(2,3,4,9)           -179.9865         estimate D2E/DX2                !
 ! D15   D(11,3,4,5)          -179.704          estimate D2E/DX2                !
 ! D16   D(11,3,4,9)             0.2312         estimate D2E/DX2                !
 ! D17   D(3,4,5,6)              0.0181         estimate D2E/DX2                !
 ! D18   D(3,4,5,10)          -179.9862         estimate D2E/DX2                !
 ! D19   D(9,4,5,6)           -179.9163         estimate D2E/DX2                !
 ! D20   D(9,4,5,10)             0.0795         estimate D2E/DX2                !
 ! D21   D(4,5,6,1)             -0.2032         estimate D2E/DX2                !
 ! D22   D(4,5,6,13)           179.7701         estimate D2E/DX2                !
 ! D23   D(10,5,6,1)           179.8011         estimate D2E/DX2                !
 ! D24   D(10,5,6,13)           -0.2256         estimate D2E/DX2                !
 --------------------------------------------------------------------------------
 Trust Radius=3.00D-01 FncErr=1.00D-07 GrdErr=1.00D-06 EigMax=2.50D+02 EigMin=1.00D-04
 Number of steps in this run=    100 maximum allowed number of steps=    100.
 GradGradGradGradGradGradGradGradGradGradGradGradGradGradGradGradGradGrad

 Leave Link  103 at Wed Mar 20 21:03:01 2019, MaxMem=   524288000 cpu:               0.0 elap:               0.0
 (Enter /home/ubuntu/g16/l202.exe)
                          Input orientation:                          
 ---------------------------------------------------------------------
 Center     Atomic      Atomic             Coordinates (Angstroms)
 Number     Number       Type             X           Y           Z
 ---------------------------------------------------------------------
      1          6           0       -1.130030    0.130890    0.770500
      2          6           0        0.193400    0.251530    0.366860
      3          6           0        0.535560    1.409380   -0.363610
      4          6           0       -0.373930    2.433970   -0.701440
      5          6           0       -1.686640    2.274770   -0.276860
      6          6           0       -2.059920    1.134880    0.453890
      7          1           0       -1.440580   -0.746310    1.336180
      8          1           0        0.940200   -0.506380    0.598670
      9          1           0       -0.050400    3.305450   -1.268300
     10          1           0       -2.423400    3.040900   -0.515230
     11          7           0        1.849030    1.551580   -0.771510
     12          7           0        2.907290    1.667060   -1.099630
     13          1           0       -3.093570    1.027030    0.782930
 ---------------------------------------------------------------------
                    Distance matrix (angstroms):
                    1          2          3          4          5
     1  C    0.000000
     2  C    1.388865   0.000000
     3  C    2.386406   1.411126   0.000000
     4  C    2.835925   2.495230   1.411058   0.000000
     5  C    2.450102   2.835917   2.386336   1.388820   0.000000
     6  C    1.404611   2.421845   2.734990   2.421773   1.404522
     7  H    1.088997   2.145963   3.382516   3.924770   3.433565
     8  H    2.172899   1.088978   2.181709   3.473166   3.924492
     9  H    3.924301   3.472695   2.181031   1.088797   2.173140
    10  H    3.434249   3.925087   3.382350   2.145545   1.089307
    11  N    3.642932   2.393142   1.382681   2.392712   3.642615
    12  N    4.707139   3.394041   2.496643   3.393098   4.706427
    13  H    2.158405   3.402747   3.825092   3.402834   2.158579
                    6          7          8          9         10
     6  C    0.000000
     7  H    2.168154   0.000000
     8  H    3.422779   2.503917   0.000000
     9  H    3.422789   5.013250   4.358545   0.000000
    10  H    2.168922   4.328581   5.013758   2.503643   0.000000
    11  N    4.117661   4.532570   2.634116   2.632621   4.531822
    12  N    5.231617   5.537283   3.387847   3.385366   5.535812
    13  H    1.090106   2.486603   4.319328   4.319679   2.487975
                   11         12         13
    11  N    0.000000
    12  N    1.113963   0.000000
    13  H    5.207757   6.321708   0.000000
 Stoichiometry    C6H5N2(1+)
 Framework group  C1[X(C6H5N2)]
 Deg. of freedom    33
 Full point group                 C1      NOp   1
 Largest Abelian subgroup         C1      NOp   1
 Largest concise Abelian subgroup C1      NOp   1
                         Standard orientation:                         
 ---------------------------------------------------------------------
 Center     Atomic      Atomic             Coordinates (Angstroms)
 Number     Number       Type             X           Y           Z
 ---------------------------------------------------------------------
      1          6           0       -1.485483   -1.224826   -0.000841
      2          6           0       -0.096809   -1.247819   -0.002022
      3          6           0        0.562839   -0.000365   -0.003084
      4          6           0       -0.096054    1.247411   -0.002807
      5          6           0       -1.484694    1.225276    0.000302
      6          6           0       -2.172144    0.000496    0.003379
      7          1           0       -2.037614   -2.163477   -0.000665
      8          1           0        0.466249   -2.179934   -0.001657
      9          1           0        0.468169    2.178609   -0.003892
     10          1           0       -2.035434    2.165103    0.000402
     11          7           0        1.945516   -0.000410    0.000158
     12          7           0        3.059473    0.000127    0.003648
     13          1           0       -3.262232    0.000640    0.009612
 ---------------------------------------------------------------------
 Rotational constants (GHZ):           5.4700552           1.5953070           1.2351026
 Leave Link  202 at Wed Mar 20 21:03:02 2019, MaxMem=   524288000 cpu:               1.8 elap:               0.5
 (Enter /home/ubuntu/g16/l301.exe)
 Standard basis: Aug-CC-pVDZ (5D, 7F)
 Ernie: Thresh=  0.10000D-02 Tol=  0.10000D-05 Strict=F.
 Ernie:  16 primitive shells out of 235 were deleted.
 There are   245 symmetry adapted cartesian basis functions of A   symmetry.
 There are   229 symmetry adapted basis functions of A   symmetry.
   229 basis functions,   399 primitive gaussians,   245 cartesian basis functions
    27 alpha electrons       27 beta electrons
       nuclear repulsion energy       313.6888483863 Hartrees.
 IExCor=  402 DFT=T Ex+Corr=B3LYP ExCW=0 ScaHFX=  0.200000
 ScaDFX=  0.800000  0.720000  1.000000  0.810000 ScalE2=  1.000000  1.000000
 IRadAn=      5 IRanWt=     -1 IRanGd=            0 ICorTp=0 IEmpDi=  4
 NAtoms=   13 NActive=   13 NUniq=   13 SFac= 1.00D+00 NAtFMM=   60 NAOKFM=F Big=F
 Integral buffers will be    131072 words long.
 Raffenetti 2 integral format.
 Two-electron integral symmetry is turned on.
 Leave Link  301 at Wed Mar 20 21:03:03 2019, MaxMem=   524288000 cpu:               3.2 elap:               0.9
 (Enter /home/ubuntu/g16/l302.exe)
 NPDir=0 NMtPBC=     1 NCelOv=     1 NCel=       1 NClECP=     1 NCelD=      1
         NCelK=      1 NCelE2=     1 NClLst=     1 CellRange=     0.0.
 One-electron integrals computed using PRISM.
 One-electron integral symmetry used in STVInt
 NBasis=   229 RedAO= T EigKep=  2.46D-06  NBF=   229
 NBsUse=   229 1.00D-06 EigRej= -1.00D+00 NBFU=   229
 Precomputing XC quadrature grid using
 IXCGrd= 4 IRadAn=           5 IRanWt=          -1 IRanGd=           0 AccXCQ= 0.00D+00.
 Generated NRdTot=       0 NPtTot=           0 NUsed=           0 NTot=          32
 NSgBfM=   245   245   245   245   245 MxSgAt=    13 MxSgA2=    13.
 Leave Link  302 at Wed Mar 20 21:03:06 2019, MaxMem=   524288000 cpu:               6.8 elap:               1.7
 (Enter /home/ubuntu/g16/l303.exe)
 DipDrv:  MaxL=1.
 Leave Link  303 at Wed Mar 20 21:03:07 2019, MaxMem=   524288000 cpu:               2.1 elap:               0.8
 (Enter /home/ubuntu/g16/l401.exe)
 ExpMin= 2.97D-02 ExpMax= 9.05D+03 ExpMxC= 3.09D+02 IAcc=3 IRadAn=         5 AccDes= 0.00D+00
 Harris functional with IExCor=  402 and IRadAn=       5 diagonalized for initial guess.
 HarFok:  IExCor=  402 AccDes= 0.00D+00 IRadAn=         5 IDoV= 1 UseB2=F ITyADJ=14
 ICtDFT=  3500011 ScaDFX=  1.000000  1.000000  1.000000  1.000000
 FoFCou: FMM=F IPFlag=           0 FMFlag=      100000 FMFlg1=           0
         NFxFlg=           0 DoJE=T BraDBF=F KetDBF=T FulRan=T
         wScrn=  0.000000 ICntrl=       500 IOpCl=  0 I1Cent=   200000004 NGrid=           0
         NMat0=    1 NMatS0=      1 NMatT0=    0 NMatD0=    1 NMtDS0=    0 NMtDT0=    0
 Petite list used in FoFCou.
 Harris En= -340.921970053575    
 JPrj=0 DoOrth=F DoCkMO=F.
 Initial guess <Sx>= 0.0000 <Sy>= 0.0000 <Sz>= 0.0000 <S**2>=-0.0000 S=-0.0000
 Leave Link  401 at Wed Mar 20 21:03:10 2019, MaxMem=   524288000 cpu:              19.1 elap:               3.4
 (Enter /home/ubuntu/g16/l502.exe)
 Integral symmetry usage will be decided dynamically.
 UHF open shell SCF:
 Using DIIS extrapolation, IDIIS=  1040.
 NGot=   524288000 LenX=   524163890 LenY=   524103424
 Requested convergence on RMS density matrix=1.00D-08 within 128 cycles.
 Requested convergence on MAX density matrix=1.00D-06.
 Requested convergence on             energy=1.00D-06.
 No special actions if energy rises.
 Fock matrices will be formed incrementally for  20 cycles.

 Cycle   1  Pass 1  IDiag  1:
 FoFJK:  IHMeth= 1 ICntrl=       0 DoSepK=F KAlg= 0 I1Cent=           0 FoldK=F
 IRaf= 990000000 NMat=       1 IRICut=       1 DoRegI=T DoRafI=F ISym2E= 0 IDoP0=0 IntGTp=1.
 FoFCou: FMM=F IPFlag=           0 FMFlag=      100000 FMFlg1=           0
         NFxFlg=           0 DoJE=F BraDBF=F KetDBF=F FulRan=T
         wScrn=  0.000000 ICntrl=         0 IOpCl=  1 I1Cent=           0 NGrid=           0
         NMat0=    1 NMatS0=      1 NMatT0=    0 NMatD0=    1 NMtDS0=    0 NMtDT0=    0
 Symmetry not used in FoFCou.
 E= -340.694827498004    
 DIIS: error= 2.43D-02 at cycle   1 NSaved=   1.
 NSaved= 1 IEnMin= 1 EnMin= -340.694827498004     IErMin= 1 ErrMin= 2.43D-02
 ErrMax= 2.43D-02  0.00D+00 EMaxC= 1.00D-01 BMatC= 5.96D-01 BMatP= 5.96D-01
 IDIUse=3 WtCom= 7.57D-01 WtEn= 2.43D-01
 Coeff-Com:  0.100D+01
 Coeff-En:   0.100D+01
 Coeff:      0.100D+01
 Gap=     0.161 Goal=   None    Shift=    0.000
 Gap=     0.161 Goal=   None    Shift=    0.000
 GapD=    0.161 DampG=1.000 DampE=0.500 DampFc=0.5000 IDamp=-1.
 Damping current iteration by 5.00D-01
 RMSDP=6.33D-02 MaxDP=3.03D+00              OVMax= 7.73D-01

 Cycle   2  Pass 1  IDiag  1:
 RMSU=  1.10D-02    CP:  8.12D-01
 E= -339.889266363571     Delta-E=        0.805561134433 Rises=F Damp=T
 DIIS: error= 3.94D-02 at cycle   2 NSaved=   2.
 NSaved= 2 IEnMin= 1 EnMin= -340.694827498004     IErMin= 1 ErrMin= 2.43D-02
 ErrMax= 3.94D-02  0.00D+00 EMaxC= 1.00D-01 BMatC= 1.31D+00 BMatP= 5.96D-01
 IDIUse=2 WtCom= 0.00D+00 WtEn= 1.00D+00
 Coeff-En:   0.857D+00 0.143D+00
 Coeff:      0.857D+00 0.143D+00
 Gap=    -0.012 Goal=   None    Shift=    0.000
 Gap=    -0.012 Goal=   None    Shift=    0.000
 RMSDP=3.29D-02 MaxDP=1.66D+00 DE= 8.06D-01 OVMax= 1.00D+00

 Cycle   3  Pass 1  IDiag  1:
 RMSU=  6.30D-03    CP:  6.10D-01  1.54D+00
 E= -340.688326051789     Delta-E=       -0.799059688217 Rises=F Damp=F
 DIIS: error= 2.95D-02 at cycle   3 NSaved=   3.
 NSaved= 3 IEnMin= 1 EnMin= -340.694827498004     IErMin= 1 ErrMin= 2.43D-02
 ErrMax= 2.95D-02  0.00D+00 EMaxC= 1.00D-01 BMatC= 6.87D-01 BMatP= 5.96D-01
 IDIUse=2 WtCom= 0.00D+00 WtEn= 1.00D+00
 Coeff-En:   0.507D+00 0.000D+00 0.493D+00
 Coeff:      0.507D+00 0.000D+00 0.493D+00
 Gap=     0.158 Goal=   None    Shift=    0.000
 Gap=     0.158 Goal=   None    Shift=    0.000
 RMSDP=7.69D-03 MaxDP=1.93D-01 DE=-7.99D-01 OVMax= 2.16D-01

 Cycle   4  Pass 1  IDiag  1:
 RMSU=  5.13D-03    CP:  6.24D-01  1.06D+00  1.09D+00
 E= -340.853009250897     Delta-E=       -0.164683199108 Rises=F Damp=F
 DIIS: error= 1.40D-02 at cycle   4 NSaved=   4.
 NSaved= 4 IEnMin= 4 EnMin= -340.853009250897     IErMin= 4 ErrMin= 1.40D-02
 ErrMax= 1.40D-02  0.00D+00 EMaxC= 1.00D-01 BMatC= 1.26D-01 BMatP= 5.96D-01
 IDIUse=3 WtCom= 8.60D-01 WtEn= 1.40D-01
 Coeff-Com:  0.260D+00-0.683D-01 0.371D+00 0.437D+00
 Coeff-En:   0.000D+00 0.000D+00 0.728D-01 0.927D+00
 Coeff:      0.224D+00-0.587D-01 0.329D+00 0.506D+00
 Gap=     0.158 Goal=   None    Shift=    0.000
 Gap=     0.158 Goal=   None    Shift=    0.000
 RMSDP=2.80D-03 MaxDP=9.30D-02 DE=-1.65D-01 OVMax= 5.86D-02

 Cycle   5  Pass 1  IDiag  1:
 RMSU=  1.93D-03    CP:  6.34D-01  1.04D+00  1.03D+00  7.57D-01
 E= -340.873654325271     Delta-E=       -0.020645074374 Rises=F Damp=F
 DIIS: error= 6.24D-03 at cycle   5 NSaved=   5.
 NSaved= 5 IEnMin= 5 EnMin= -340.873654325271     IErMin= 5 ErrMin= 6.24D-03
 ErrMax= 6.24D-03  0.00D+00 EMaxC= 1.00D-01 BMatC= 3.26D-02 BMatP= 1.26D-01
 IDIUse=3 WtCom= 9.38D-01 WtEn= 6.24D-02
 Coeff-Com:  0.465D-01-0.360D-01 0.683D-01 0.345D+00 0.576D+00
 Coeff-En:   0.000D+00 0.000D+00 0.000D+00 0.262D+00 0.738D+00
 Coeff:      0.436D-01-0.338D-01 0.641D-01 0.340D+00 0.586D+00
 Gap=     0.161 Goal=   None    Shift=    0.000
 Gap=     0.161 Goal=   None    Shift=    0.000
 RMSDP=1.14D-03 MaxDP=3.12D-02 DE=-2.06D-02 OVMax= 2.41D-02

 Cycle   6  Pass 1  IDiag  1:
 RMSU=  4.10D-04    CP:  6.28D-01  1.06D+00  1.04D+00  7.74D-01  7.19D-01
 E= -340.880198394589     Delta-E=       -0.006544069317 Rises=F Damp=F
 DIIS: error= 1.52D-03 at cycle   6 NSaved=   6.
 NSaved= 6 IEnMin= 6 EnMin= -340.880198394589     IErMin= 6 ErrMin= 1.52D-03
 ErrMax= 1.52D-03  0.00D+00 EMaxC= 1.00D-01 BMatC= 2.05D-03 BMatP= 3.26D-02
 IDIUse=3 WtCom= 9.85D-01 WtEn= 1.52D-02
 Coeff-Com:  0.151D-01-0.220D-01 0.680D-02 0.129D+00 0.313D+00 0.558D+00
 Coeff-En:   0.000D+00 0.000D+00 0.000D+00 0.000D+00 0.000D+00 0.100D+01
 Coeff:      0.148D-01-0.216D-01 0.670D-02 0.127D+00 0.308D+00 0.565D+00
 Gap=     0.161 Goal=   None    Shift=    0.000
 Gap=     0.161 Goal=   None    Shift=    0.000
 RMSDP=3.28D-04 MaxDP=1.22D-02 DE=-6.54D-03 OVMax= 1.23D-02

 Cycle   7  Pass 1  IDiag  1:
 RMSU=  1.78D-04    CP:  6.27D-01  1.05D+00  1.05D+00  8.03D-01  6.61D-01
                    CP:  7.83D-01
 E= -340.880695243059     Delta-E=       -0.000496848471 Rises=F Damp=F
 DIIS: error= 7.03D-04 at cycle   7 NSaved=   7.
 NSaved= 7 IEnMin= 7 EnMin= -340.880695243059     IErMin= 7 ErrMin= 7.03D-04
 ErrMax= 7.03D-04  0.00D+00 EMaxC= 1.00D-01 BMatC= 4.84D-04 BMatP= 2.05D-03
 IDIUse=3 WtCom= 9.93D-01 WtEn= 7.03D-03
 Coeff-Com:  0.573D-02-0.868D-02-0.129D-01 0.553D-03 0.756D-01 0.354D+00
 Coeff-Com:  0.586D+00
 Coeff-En:   0.000D+00 0.000D+00 0.000D+00 0.000D+00 0.000D+00 0.000D+00
 Coeff-En:   0.100D+01
 Coeff:      0.569D-02-0.861D-02-0.128D-01 0.549D-03 0.751D-01 0.352D+00
 Coeff:      0.589D+00
 Gap=     0.163 Goal=   None    Shift=    0.000
 Gap=     0.163 Goal=   None    Shift=    0.000
 RMSDP=1.58D-04 MaxDP=5.20D-03 DE=-4.97D-04 OVMax= 3.56D-03

 Cycle   8  Pass 1  IDiag  1:
 RMSU=  1.28D-04    CP:  6.27D-01  1.04D+00  1.05D+00  8.03D-01  6.87D-01
                    CP:  8.02D-01  7.04D-01
 E= -340.880820542564     Delta-E=       -0.000125299505 Rises=F Damp=F
 DIIS: error= 2.39D-04 at cycle   8 NSaved=   8.
 NSaved= 8 IEnMin= 8 EnMin= -340.880820542564     IErMin= 8 ErrMin= 2.39D-04
 ErrMax= 2.39D-04  0.00D+00 EMaxC= 1.00D-01 BMatC= 3.48D-05 BMatP= 4.84D-04
 IDIUse=3 WtCom= 9.98D-01 WtEn= 2.39D-03
 Coeff-Com:  0.235D-02 0.502D-04-0.297D-02-0.209D-01-0.420D-01-0.454D-01
 Coeff-Com:  0.117D+00 0.992D+00
 Coeff-En:   0.000D+00 0.000D+00 0.000D+00 0.000D+00 0.000D+00 0.000D+00
 Coeff-En:   0.000D+00 0.100D+01
 Coeff:      0.234D-02 0.501D-04-0.296D-02-0.208D-01-0.419D-01-0.453D-01
 Coeff:      0.117D+00 0.992D+00
 Gap=     0.163 Goal=   None    Shift=    0.000
 Gap=     0.163 Goal=   None    Shift=    0.000
 RMSDP=6.39D-05 MaxDP=1.60D-03 DE=-1.25D-04 OVMax= 3.12D-03

 Cycle   9  Pass 1  IDiag  1:
 RMSU=  3.63D-05    CP:  6.27D-01  1.04D+00  1.05D+00  8.06D-01  6.83D-01
                    CP:  8.18D-01  8.02D-01  1.14D+00
 E= -340.880833688754     Delta-E=       -0.000013146190 Rises=F Damp=F
 DIIS: error= 5.09D-05 at cycle   9 NSaved=   9.
 NSaved= 9 IEnMin= 9 EnMin= -340.880833688754     IErMin= 9 ErrMin= 5.09D-05
 ErrMax= 5.09D-05  0.00D+00 EMaxC= 1.00D-01 BMatC= 3.42D-06 BMatP= 3.48D-05
 IDIUse=1 WtCom= 1.00D+00 WtEn= 0.00D+00
 Coeff-Com:  0.756D-03 0.176D-03-0.647D-03-0.590D-02-0.162D-01-0.164D-01
 Coeff-Com:  0.241D-01 0.411D+00 0.604D+00
 Coeff:      0.756D-03 0.176D-03-0.647D-03-0.590D-02-0.162D-01-0.164D-01
 Coeff:      0.241D-01 0.411D+00 0.604D+00
 Gap=     0.163 Goal=   None    Shift=    0.000
 Gap=     0.163 Goal=   None    Shift=    0.000
 RMSDP=1.61D-05 MaxDP=5.66D-04 DE=-1.31D-05 OVMax= 3.81D-04

 Cycle  10  Pass 1  IDiag  1:
 RMSU=  1.01D-05    CP:  6.27D-01  1.04D+00  1.05D+00  8.05D-01  6.83D-01
                    CP:  8.23D-01  8.10D-01  1.10D+00  7.46D-01
 E= -340.880834405697     Delta-E=       -0.000000716944 Rises=F Damp=F
 DIIS: error= 2.21D-05 at cycle  10 NSaved=  10.
 NSaved=10 IEnMin=10 EnMin= -340.880834405697     IErMin=10 ErrMin= 2.21D-05
 ErrMax= 2.21D-05  0.00D+00 EMaxC= 1.00D-01 BMatC= 6.93D-07 BMatP= 3.42D-06
 IDIUse=1 WtCom= 1.00D+00 WtEn= 0.00D+00
 Coeff-Com:  0.533D-04 0.641D-04 0.464D-04 0.813D-03-0.911D-03 0.503D-02
 Coeff-Com: -0.227D-02 0.747D-01 0.328D+00 0.595D+00
 Coeff:      0.533D-04 0.641D-04 0.464D-04 0.813D-03-0.911D-03 0.503D-02
 Coeff:     -0.227D-02 0.747D-01 0.328D+00 0.595D+00
 Gap=     0.163 Goal=   None    Shift=    0.000
 Gap=     0.163 Goal=   None    Shift=    0.000
 RMSDP=8.15D-06 MaxDP=2.82D-04 DE=-7.17D-07 OVMax= 1.96D-04

 Cycle  11  Pass 1  IDiag  1:
 RMSU=  3.63D-06    CP:  6.27D-01  1.04D+00  1.05D+00  8.06D-01  6.83D-01
                    CP:  8.22D-01  7.96D-01  1.10D+00  7.52D-01  6.67D-01
 E= -340.880834595417     Delta-E=       -0.000000189719 Rises=F Damp=F
 DIIS: error= 4.39D-06 at cycle  11 NSaved=  11.
 NSaved=11 IEnMin=11 EnMin= -340.880834595417     IErMin=11 ErrMin= 4.39D-06
 ErrMax= 4.39D-06  0.00D+00 EMaxC= 1.00D-01 BMatC= 1.60D-08 BMatP= 6.93D-07
 IDIUse=1 WtCom= 1.00D+00 WtEn= 0.00D+00
 Coeff-Com: -0.406D-04-0.511D-06-0.456D-05 0.395D-03 0.116D-02 0.259D-02
 Coeff-Com:  0.525D-03-0.130D-01-0.190D-01-0.376D-01 0.107D+01
 Coeff:     -0.406D-04-0.511D-06-0.456D-05 0.395D-03 0.116D-02 0.259D-02
 Coeff:      0.525D-03-0.130D-01-0.190D-01-0.376D-01 0.107D+01
 Gap=     0.163 Goal=   None    Shift=    0.000
 Gap=     0.163 Goal=   None    Shift=    0.000
 RMSDP=1.80D-06 MaxDP=5.66D-05 DE=-1.90D-07 OVMax= 3.51D-05

 Cycle  12  Pass 1  IDiag  1:
 RMSU=  5.07D-07    CP:  6.27D-01  1.04D+00  1.05D+00  8.06D-01  6.83D-01
                    CP:  8.21D-01  7.93D-01  1.10D+00  7.52D-01  6.62D-01
                    CP:  1.12D+00
 E= -340.880834600989     Delta-E=       -0.000000005573 Rises=F Damp=F
 DIIS: error= 5.32D-07 at cycle  12 NSaved=  12.
 NSaved=12 IEnMin=12 EnMin= -340.880834600989     IErMin=12 ErrMin= 5.32D-07
 ErrMax= 5.32D-07  0.00D+00 EMaxC= 1.00D-01 BMatC= 2.99D-10 BMatP= 1.60D-08
 IDIUse=1 WtCom= 1.00D+00 WtEn= 0.00D+00
 Coeff-Com: -0.167D-04 0.135D-05-0.111D-04 0.107D-03 0.413D-03 0.858D-03
 Coeff-Com:  0.264D-03-0.522D-02-0.114D-01-0.282D-01 0.364D+00 0.680D+00
 Coeff:     -0.167D-04 0.135D-05-0.111D-04 0.107D-03 0.413D-03 0.858D-03
 Coeff:      0.264D-03-0.522D-02-0.114D-01-0.282D-01 0.364D+00 0.680D+00
 Gap=     0.163 Goal=   None    Shift=    0.000
 Gap=     0.163 Goal=   None    Shift=    0.000
 RMSDP=2.26D-07 MaxDP=9.14D-06 DE=-5.57D-09 OVMax= 3.63D-06

 Cycle  13  Pass 1  IDiag  1:
 RMSU=  1.46D-07    CP:  6.27D-01  1.04D+00  1.05D+00  8.06D-01  6.83D-01
                    CP:  8.21D-01  7.93D-01  1.10D+00  7.52D-01  6.60D-01
                    CP:  1.13D+00  9.36D-01
 E= -340.880834601045     Delta-E=       -0.000000000055 Rises=F Damp=F
 DIIS: error= 2.77D-07 at cycle  13 NSaved=  13.
 NSaved=13 IEnMin=13 EnMin= -340.880834601045     IErMin=13 ErrMin= 2.77D-07
 ErrMax= 2.77D-07  0.00D+00 EMaxC= 1.00D-01 BMatC= 9.24D-11 BMatP= 2.99D-10
 IDIUse=1 WtCom= 1.00D+00 WtEn= 0.00D+00
 Coeff-Com: -0.260D-05 0.381D-06-0.385D-05-0.613D-06 0.579D-04 0.737D-04
 Coeff-Com:  0.618D-04-0.103D-02-0.411D-02-0.128D-01 0.259D-01 0.356D+00
 Coeff-Com:  0.635D+00
 Coeff:     -0.260D-05 0.381D-06-0.385D-05-0.613D-06 0.579D-04 0.737D-04
 Coeff:      0.618D-04-0.103D-02-0.411D-02-0.128D-01 0.259D-01 0.356D+00
 Coeff:      0.635D+00
 Gap=     0.163 Goal=   None    Shift=    0.000
 Gap=     0.163 Goal=   None    Shift=    0.000
 RMSDP=1.17D-07 MaxDP=5.89D-06 DE=-5.53D-11 OVMax= 2.11D-06

 Cycle  14  Pass 1  IDiag  1:
 RMSU=  5.27D-08    CP:  6.27D-01  1.04D+00  1.05D+00  8.06D-01  6.83D-01
                    CP:  8.21D-01  7.93D-01  1.10D+00  7.52D-01  6.60D-01
                    CP:  1.13D+00  9.78D-01  6.35D-01
 E= -340.880834601068     Delta-E=       -0.000000000024 Rises=F Damp=F
 DIIS: error= 1.18D-07 at cycle  14 NSaved=  14.
 NSaved=14 IEnMin=14 EnMin= -340.880834601068     IErMin=14 ErrMin= 1.18D-07
 ErrMax= 1.18D-07  0.00D+00 EMaxC= 1.00D-01 BMatC= 1.01D-11 BMatP= 9.24D-11
 IDIUse=1 WtCom= 1.00D+00 WtEn= 0.00D+00
 Coeff-Com: -0.566D-06 0.130D-06-0.162D-05-0.460D-05 0.116D-04 0.798D-06
 Coeff-Com:  0.259D-04-0.262D-03-0.157D-02-0.557D-02-0.769D-02 0.143D+00
 Coeff-Com:  0.356D+00 0.516D+00
 Coeff:     -0.566D-06 0.130D-06-0.162D-05-0.460D-05 0.116D-04 0.798D-06
 Coeff:      0.259D-04-0.262D-03-0.157D-02-0.557D-02-0.769D-02 0.143D+00
 Coeff:      0.356D+00 0.516D+00
 Gap=     0.163 Goal=   None    Shift=    0.000
 Gap=     0.163 Goal=   None    Shift=    0.000
 RMSDP=3.26D-08 MaxDP=1.06D-06 DE=-2.36D-11 OVMax= 1.06D-06

 Cycle  15  Pass 1  IDiag  1:
 RMSU=  2.10D-08    CP:  6.27D-01  1.04D+00  1.05D+00  8.06D-01  6.83D-01
                    CP:  8.21D-01  7.93D-01  1.10D+00  7.52D-01  6.60D-01
                    CP:  1.13D+00  9.88D-01  6.78D-01  8.18D-01
 E= -340.880834601080     Delta-E=       -0.000000000011 Rises=F Damp=F
 DIIS: error= 3.92D-08 at cycle  15 NSaved=  15.
 NSaved=15 IEnMin=15 EnMin= -340.880834601080     IErMin=15 ErrMin= 3.92D-08
 ErrMax= 3.92D-08  0.00D+00 EMaxC= 1.00D-01 BMatC= 1.72D-12 BMatP= 1.01D-11
 IDIUse=1 WtCom= 1.00D+00 WtEn= 0.00D+00
 Coeff-Com:  0.212D-06 0.622D-07-0.429D-06-0.228D-05-0.630D-05-0.136D-04
 Coeff-Com:  0.655D-05 0.124D-03 0.107D-03-0.362D-03-0.125D-01-0.397D-03
 Coeff-Com:  0.793D-01 0.323D+00 0.611D+00
 Coeff:      0.212D-06 0.622D-07-0.429D-06-0.228D-05-0.630D-05-0.136D-04
 Coeff:      0.655D-05 0.124D-03 0.107D-03-0.362D-03-0.125D-01-0.397D-03
 Coeff:      0.793D-01 0.323D+00 0.611D+00
 Gap=     0.163 Goal=   None    Shift=    0.000
 Gap=     0.163 Goal=   None    Shift=    0.000
 RMSDP=1.31D-08 MaxDP=4.67D-07 DE=-1.13D-11 OVMax= 2.82D-07

 Cycle  16  Pass 1  IDiag  1:
 RMSU=  4.91D-09    CP:  6.27D-01  1.04D+00  1.05D+00  8.06D-01  6.83D-01
                    CP:  8.21D-01  7.93D-01  1.10D+00  7.52D-01  6.59D-01
                    CP:  1.14D+00  9.95D-01  6.97D-01  8.41D-01  6.84D-01
 E= -340.880834601077     Delta-E=        0.000000000003 Rises=F Damp=F
 DIIS: error= 4.68D-09 at cycle  16 NSaved=  16.
 NSaved=16 IEnMin=15 EnMin= -340.880834601080     IErMin=16 ErrMin= 4.68D-09
 ErrMax= 4.68D-09  0.00D+00 EMaxC= 1.00D-01 BMatC= 1.71D-14 BMatP= 1.72D-12
 IDIUse=1 WtCom= 1.00D+00 WtEn= 0.00D+00
 Coeff-Com:  0.233D-07 0.861D-08-0.712D-07 0.351D-07-0.493D-06-0.921D-06
 Coeff-Com:  0.192D-05 0.207D-04 0.380D-04 0.427D-04-0.140D-02-0.457D-02
 Coeff-Com:  0.302D-02 0.262D-01 0.612D-01 0.915D+00
 Coeff:      0.233D-07 0.861D-08-0.712D-07 0.351D-07-0.493D-06-0.921D-06
 Coeff:      0.192D-05 0.207D-04 0.380D-04 0.427D-04-0.140D-02-0.457D-02
 Coeff:      0.302D-02 0.262D-01 0.612D-01 0.915D+00
 Gap=     0.163 Goal=   None    Shift=    0.000
 Gap=     0.163 Goal=   None    Shift=    0.000
 RMSDP=1.36D-09 MaxDP=3.87D-08 DE= 2.84D-12 OVMax= 3.91D-08

 SCF Done:  E(UB3LYP) =  -340.880834601     A.U. after   16 cycles
            NFock= 16  Conv=0.14D-08     -V/T= 2.0066
 <Sx>= 0.0000 <Sy>= 0.0000 <Sz>= 0.0000 <S**2>=-0.0000 S=-0.0000
 <L.S>= 0.000000000000E+00
 KE= 3.386583855123D+02 PE=-1.407306546370D+03 EE= 4.140784778701D+02
 Annihilation of the first spin contaminant:
 S**2 before annihilation    -0.0000,   after     0.0000
 Leave Link  502 at Wed Mar 20 21:05:07 2019, MaxMem=   524288000 cpu:             814.3 elap:             116.5
 (Enter /home/ubuntu/g16/l601.exe)
 Copying SCF densities to generalized density rwf, IOpCl= 1 IROHF=0.

 **********************************************************************

            Population analysis using the SCF density.

 **********************************************************************

 Orbital symmetries:
 Alpha Orbitals:
       Occupied  (A) (A) (A) (A) (A) (A) (A) (A) (A) (A) (A) (A)
                 (A) (A) (A) (A) (A) (A) (A) (A) (A) (A) (A) (A)
                 (A) (A) (A)
       Virtual   (A) (A) (A) (A) (A) (A) (A) (A) (A) (A) (A) (A)
                 (A) (A) (A) (A) (A) (A) (A) (A) (A) (A) (A) (A)
                 (A) (A) (A) (A) (A) (A) (A) (A) (A) (A) (A) (A)
                 (A) (A) (A) (A) (A) (A) (A) (A) (A) (A) (A) (A)
                 (A) (A) (A) (A) (A) (A) (A) (A) (A) (A) (A) (A)
                 (A) (A) (A) (A) (A) (A) (A) (A) (A) (A) (A) (A)
                 (A) (A) (A) (A) (A) (A) (A) (A) (A) (A) (A) (A)
                 (A) (A) (A) (A) (A) (A) (A) (A) (A) (A) (A) (A)
                 (A) (A) (A) (A) (A) (A) (A) (A) (A) (A) (A) (A)
                 (A) (A) (A) (A) (A) (A) (A) (A) (A) (A) (A) (A)
                 (A) (A) (A) (A) (A) (A) (A) (A) (A) (A) (A) (A)
                 (A) (A) (A) (A) (A) (A) (A) (A) (A) (A) (A) (A)
                 (A) (A) (A) (A) (A) (A) (A) (A) (A) (A) (A) (A)
                 (A) (A) (A) (A) (A) (A) (A) (A) (A) (A) (A) (A)
                 (A) (A) (A) (A) (A) (A) (A) (A) (A) (A) (A) (A)
                 (A) (A) (A) (A) (A) (A) (A) (A) (A) (A) (A) (A)
                 (A) (A) (A) (A) (A) (A) (A) (A) (A) (A)
 Beta  Orbitals:
       Occupied  (A) (A) (A) (A) (A) (A) (A) (A) (A) (A) (A) (A)
                 (A) (A) (A) (A) (A) (A) (A) (A) (A) (A) (A) (A)
                 (A) (A) (A)
       Virtual   (A) (A) (A) (A) (A) (A) (A) (A) (A) (A) (A) (A)
                 (A) (A) (A) (A) (A) (A) (A) (A) (A) (A) (A) (A)
                 (A) (A) (A) (A) (A) (A) (A) (A) (A) (A) (A) (A)
                 (A) (A) (A) (A) (A) (A) (A) (A) (A) (A) (A) (A)
                 (A) (A) (A) (A) (A) (A) (A) (A) (A) (A) (A) (A)
                 (A) (A) (A) (A) (A) (A) (A) (A) (A) (A) (A) (A)
                 (A) (A) (A) (A) (A) (A) (A) (A) (A) (A) (A) (A)
                 (A) (A) (A) (A) (A) (A) (A) (A) (A) (A) (A) (A)
                 (A) (A) (A) (A) (A) (A) (A) (A) (A) (A) (A) (A)
                 (A) (A) (A) (A) (A) (A) (A) (A) (A) (A) (A) (A)
                 (A) (A) (A) (A) (A) (A) (A) (A) (A) (A) (A) (A)
                 (A) (A) (A) (A) (A) (A) (A) (A) (A) (A) (A) (A)
                 (A) (A) (A) (A) (A) (A) (A) (A) (A) (A) (A) (A)
                 (A) (A) (A) (A) (A) (A) (A) (A) (A) (A) (A) (A)
                 (A) (A) (A) (A) (A) (A) (A) (A) (A) (A) (A) (A)
                 (A) (A) (A) (A) (A) (A) (A) (A) (A) (A) (A) (A)
                 (A) (A) (A) (A) (A) (A) (A) (A) (A) (A)
 The electronic state is 1-A.
     Natural Orbital Coefficients:
                           1         2         3         4         5
     Eigenvalues --     2.00000   2.00000   2.00000   2.00000   2.00000
   1 1   C  1S          0.12122   0.09446  -0.02950  -0.12863   0.12808
   2        2S         -0.18779  -0.02900  -0.04781   0.07882  -0.00635
   3        3S         -0.30041  -0.31279  -0.11995   0.13733  -0.04371
   4        4S          1.69338  -0.38251  -0.03244  -0.00455  -0.05627
   5        5PX         0.09581  -0.13474  -0.04938  -0.02592  -0.05874
   6        5PY         0.12480  -0.27510  -0.10114   0.08402  -0.05132
   7        5PZ         0.02355  -0.02324   0.00783  -0.02738  -0.03714
   8        6PX        -0.08767  -0.19123  -0.04740   0.06162   0.03684
   9        6PY        -0.20154   0.09446   0.02060   0.00872  -0.00207
  10        6PZ         0.01225  -0.01274   0.00593  -0.02056  -0.02627
  11        7PX         0.13301   0.00627  -0.02118   0.08432   0.01019
  12        7PY         0.27108  -0.04688   0.02228  -0.06238  -0.00193
  13        7PZ         0.00082  -0.00117  -0.00014   0.00059   0.00006
  14        8D 0        0.00235   0.00175   0.00222  -0.00466   0.00086
  15        8D+1        0.00096   0.00038   0.00270  -0.00650  -0.00320
  16        8D-1        0.00094  -0.00137  -0.00140   0.00251  -0.00019
  17        8D+2        0.00924  -0.00632  -0.00132  -0.00696  -0.00207
  18        8D-2       -0.02032   0.00922   0.00020   0.00464  -0.00014
  19        9D 0       -0.00164  -0.00252   0.00116  -0.00929   0.00187
  20        9D+1        0.00062  -0.00040   0.00086  -0.00321  -0.00296
  21        9D-1       -0.00019  -0.00016  -0.00036   0.00088   0.00009
  22        9D+2       -0.03416  -0.01817  -0.00837   0.04305   0.01435
  23        9D-2        0.11018  -0.08919  -0.01302  -0.00017  -0.00116
  24 2   C  1S         -0.02222  -0.13166   0.25607   0.07524   0.11144
  25        2S          0.08770  -0.03686  -0.05608   0.13926  -0.05714
  26        3S          0.10984  -0.24764  -0.16613   0.10319  -0.11434
  27        4S         -1.71891   0.07151  -0.08076   0.04107  -0.00734
  28        5PX         0.09247   0.14364   0.03334   0.08175   0.02463
  29        5PY        -0.20644  -0.09501  -0.07941   0.12031  -0.02213
  30        5PZ         0.02507  -0.00499   0.03806  -0.09924  -0.06083
  31        6PX        -0.16887  -0.27953  -0.08693   0.15038   0.00608
  32        6PY         0.15391  -0.16685  -0.08393   0.09266  -0.02119
  33        6PZ         0.01213  -0.00099   0.02086  -0.04850  -0.02372
  34        7PX         0.14183  -0.03579  -0.03678   0.10277   0.00143
  35        7PY        -0.28765   0.02282  -0.02733   0.06079  -0.00175
  36        7PZ         0.00055   0.00027   0.00214  -0.00477  -0.00209
  37        8D 0        0.00309  -0.00086   0.00182  -0.00634   0.00221
  38        8D+1       -0.00077   0.00158   0.00052  -0.00138   0.00029
  39        8D-1        0.00109   0.00038   0.00151  -0.00499  -0.00337
  40        8D+2       -0.00266  -0.00482  -0.00125  -0.00191   0.00108
  41        8D-2       -0.01763   0.01554   0.00227   0.00535   0.00086
  42        9D 0        0.00260  -0.00608  -0.00234   0.00634  -0.00200
  43        9D+1        0.00078  -0.00017   0.00183  -0.00786  -0.00767
  44        9D-1       -0.00006   0.00041  -0.00076   0.00397   0.00471
  45        9D+2        0.02202   0.10423   0.04276  -0.02456  -0.00050
  46        9D-2        0.08880  -0.06026  -0.00444   0.01220  -0.00735
  47 3   C  1S          0.12365  -0.09627   0.08434   0.04855   0.52344
  48        2S         -0.08279   0.17040   0.00331   0.15637  -0.04508
  49        3S         -0.21999   0.49756   0.09109  -0.00838  -0.02104
  50        4S          1.85625   0.04602   0.08051   0.00068   0.05493
  51        5PX         0.14327   0.12884   0.05157  -0.01659   0.02938
  52        5PY        -0.00540   0.06476   0.06944  -0.13650  -0.02074
  53        5PZ         0.02038   0.01130   0.03286  -0.11068  -0.07547
  54        6PX         0.15390  -0.10186  -0.04302   0.05959  -0.01183
  55        6PY         0.08877  -0.17582  -0.07378   0.03121  -0.01573
  56        6PZ         0.00781   0.00904   0.01714  -0.04942  -0.02508
  57        7PX        -0.21237  -0.02280  -0.01915  -0.00507  -0.00146
  58        7PY        -0.07982  -0.03808  -0.06431   0.12646  -0.00030
  59        7PZ         0.00063   0.00094   0.00138  -0.00285  -0.00036
  60        8D 0       -0.00574  -0.01052  -0.00032  -0.00970   0.00325
  61        8D+1       -0.00062  -0.00057   0.00114  -0.00652  -0.00832
  62        8D-1       -0.00076   0.00044  -0.00303   0.00655   0.00341
  63        8D+2       -0.00552   0.00793   0.00657  -0.00771   0.00144
  64        8D-2       -0.00172  -0.00872  -0.00594   0.00298  -0.00174
  65        9D 0       -0.01936   0.00529   0.00772  -0.01487   0.00991
  66        9D+1       -0.00215   0.00182  -0.00220   0.01461   0.01819
  67        9D-1       -0.00032  -0.00000  -0.00165   0.00350   0.00177
  68        9D+2       -0.04077  -0.15972  -0.03443   0.04965  -0.03855
  69        9D-2       -0.01215   0.07657   0.04356  -0.04393   0.00820
  70 4   C  1S          0.03616  -0.13255   0.03009   0.00522   0.09023
  71        2S          0.04837   0.04756  -0.01837   0.12322  -0.05851
  72        3S          0.02906   0.08032   0.05749  -0.02715  -0.06853
  73        4S         -1.51710   0.13819   0.08261  -0.20292  -0.02296
  74        5PX         0.06043   0.05758  -0.01152   0.05960  -0.00856
  75        5PY         0.17144  -0.07451  -0.06400   0.10425   0.02973
  76        5PZ         0.00964   0.00379  -0.02370   0.03455   0.00862
  77        6PX        -0.20643  -0.11177   0.00944  -0.02758  -0.00413
  78        6PY        -0.08056  -0.05089  -0.02714  -0.00538   0.00885
  79        6PZ         0.00365   0.00378  -0.01441   0.02772   0.01568
  80        7PX         0.20085   0.00037   0.02474  -0.04890  -0.00549
  81        7PY         0.22905   0.00117  -0.00803   0.02442   0.02541
  82        7PZ        -0.00067   0.00067  -0.00124   0.00252   0.00163
  83        8D 0        0.00316  -0.00254   0.00113  -0.00523   0.00275
  84        8D+1       -0.00010   0.00118   0.00322  -0.00723  -0.00274
  85        8D-1       -0.00101  -0.00045  -0.00116   0.00420   0.00297
  86        8D+2        0.00076  -0.00065   0.00156  -0.00343   0.00207
  87        8D-2        0.01284  -0.00664  -0.00528   0.01082   0.00177
  88        9D 0        0.00329  -0.00392  -0.00114  -0.00240  -0.00074
  89        9D+1        0.00069   0.00008   0.00156  -0.00717  -0.00722
  90        9D-1        0.00010  -0.00037   0.00026  -0.00279  -0.00412
  91        9D+2        0.02414  -0.00916  -0.01852   0.03862  -0.01371
  92        9D-2       -0.03960   0.04226   0.01452  -0.05535   0.00807
  93 5   C  1S          0.05557  -0.01368   0.32550   0.07738  -0.40261
  94        2S         -0.11209   0.00364  -0.00760   0.08310  -0.05382
  95        3S         -0.15418  -0.01668  -0.02759   0.04385   0.01654
  96        4S          1.47431  -0.14766  -0.05616   0.09239   0.07200
  97        5PX         0.05032  -0.02433   0.00883  -0.01775  -0.01153
  98        5PY        -0.05925  -0.05110   0.00775  -0.12366   0.01915
  99        5PZ         0.00999  -0.01512  -0.04692   0.09131   0.02439
 100        6PX        -0.13678  -0.04676   0.03710  -0.07343   0.02790
 101        6PY         0.09462  -0.02958   0.01015  -0.02761   0.00492
 102        6PZ         0.00478  -0.00829  -0.02636   0.04935   0.00990
 103        7PX         0.21471  -0.05176   0.00056  -0.03152  -0.02008
 104        7PY        -0.21559   0.02828   0.01724  -0.01666  -0.02890
 105        7PZ        -0.00049  -0.00062  -0.00213   0.00509   0.00233
 106        8D 0        0.00108   0.00161   0.00120  -0.00430   0.00198
 107        8D+1        0.00013   0.00081  -0.00060   0.00062   0.00051
 108        8D-1       -0.00092   0.00132   0.00149  -0.00272   0.00008
 109        8D+2        0.00645   0.00519   0.00359  -0.00632  -0.00027
 110        8D-2        0.01628  -0.00219  -0.00332   0.00842   0.00165
 111        9D 0       -0.00207   0.00168   0.00468  -0.00159  -0.00243
 112        9D+1        0.00048   0.00004  -0.00016  -0.00078  -0.00170
 113        9D-1       -0.00004   0.00027   0.00063  -0.00139  -0.00039
 114        9D+2       -0.04036  -0.01643  -0.00633   0.01480  -0.00261
 115        9D-2       -0.04556  -0.00392  -0.00946  -0.02045  -0.00863
 116 6   C  1S         -0.04991   0.03622   0.01429  -0.10519  -0.12727
 117        2S          0.02677  -0.08538  -0.04393   0.09680  -0.01292
 118        3S          0.18083  -0.23047  -0.05940   0.19087   0.01638
 119        4S         -1.47378   0.27533   0.00250   0.10832  -0.04214
 120        5PX        -0.08180  -0.04595  -0.07030   0.19243  -0.05359
 121        5PY         0.01040   0.12229   0.02687   0.02595  -0.00948
 122        5PZ         0.01749  -0.02767  -0.03068   0.05684  -0.00058
 123        6PX         0.16026  -0.08836  -0.01593   0.02801  -0.00019
 124        6PY        -0.10871   0.12446   0.04410  -0.00183  -0.00829
 125        6PZ         0.00753  -0.01461  -0.01724   0.03309   0.00082
 126        7PX        -0.30287   0.05348   0.01428  -0.01742   0.00497
 127        7PY         0.07685  -0.04837   0.02020  -0.07920  -0.03364
 128        7PZ         0.00161  -0.00092  -0.00073   0.00087  -0.00093
 129        8D 0        0.00547   0.00214   0.00151  -0.00328   0.00078
 130        8D+1        0.00096  -0.00103  -0.00105   0.00161  -0.00056
 131        8D-1       -0.00062   0.00030  -0.00242   0.00523   0.00271
 132        8D+2        0.01955  -0.00939  -0.00020  -0.00756  -0.00147
 133        8D-2        0.00011   0.01316   0.00410   0.00128   0.00101
 134        9D 0        0.00359   0.00030  -0.00185   0.00403  -0.00032
 135        9D+1        0.00066  -0.00026  -0.00037   0.00133   0.00178
 136        9D-1        0.00011   0.00004  -0.00050   0.00101   0.00054
 137        9D+2       -0.05090   0.02124  -0.01853   0.04860  -0.02120
 138        9D-2       -0.02971  -0.00792   0.00060  -0.00720  -0.00290
 139 7   H  1S         -0.25315   0.23404   0.06005   0.01831   0.05138
 140        2S         -0.53400   0.33697   0.06671   0.06569   0.07515
 141        3S          0.07993   0.00128   0.00550   0.00322   0.00286
 142        4PX        -0.00675   0.00506   0.00102  -0.00022   0.00045
 143        4PY        -0.01266   0.00723   0.00130   0.00232   0.00200
 144        4PZ         0.00079  -0.00081   0.00026  -0.00086  -0.00118
 145        5PX        -0.05689   0.03109   0.00599   0.01614   0.01185
 146        5PY        -0.10481   0.06910   0.01184   0.01271   0.01286
 147        5PZ         0.00014  -0.00042   0.00010  -0.00012  -0.00032
 148 8   H  1S          0.23675   0.08981   0.02902   0.02401  -0.01410
 149        2S          0.52633   0.06447   0.06706  -0.03994  -0.00919
 150        3S         -0.07905   0.00800  -0.00139  -0.00063  -0.00257
 151        4PX        -0.00625  -0.00081   0.00004   0.00016   0.00131
 152        4PY         0.01003   0.00576  -0.00079   0.00625  -0.00197
 153        4PZ         0.00084  -0.00017   0.00135  -0.00345  -0.00206
 154        5PX        -0.05385  -0.02217  -0.01272   0.00522   0.00003
 155        5PY         0.11011   0.00471   0.01305  -0.01444   0.00002
 156        5PZ        -0.00012   0.00010   0.00009   0.00144   0.00247
 157 9   H  1S          0.16907  -0.00135  -0.06690   0.18562  -0.01863
 158        2S          0.37992  -0.00873  -0.07634   0.25471  -0.01014
 159        3S         -0.07264   0.00135  -0.00138   0.00716  -0.00547
 160        4PX        -0.00491   0.00056   0.00190  -0.00527   0.00064
 161        4PY        -0.00689  -0.00323   0.00250  -0.00935   0.00270
 162        4PZ         0.00030   0.00015  -0.00089   0.00140   0.00044
 163        5PX        -0.03935  -0.00706   0.00640  -0.02716   0.00216
 164        5PY        -0.08010  -0.00209   0.01284  -0.04799  -0.00237
 165        5PZ        -0.00027   0.00024  -0.00108   0.00397   0.00372
 166 10  H  1S         -0.14044  -0.03074  -0.01090  -0.03613  -0.00691
 167        2S         -0.34710  -0.02267   0.00698  -0.09067  -0.01782
 168        3S          0.07978  -0.01500  -0.00434  -0.00433   0.00648
 169        4PX        -0.00334  -0.00111  -0.00036  -0.00140  -0.00046
 170        4PY         0.00701   0.00023   0.00155  -0.00164   0.00027
 171        4PZ         0.00031  -0.00052  -0.00167   0.00333   0.00099
 172        5PX        -0.04118   0.00013   0.00167  -0.00541  -0.00154
 173        5PY         0.06926   0.00174  -0.00371   0.02183   0.00363
 174        5PZ        -0.00005  -0.00020  -0.00111   0.00255   0.00109
 175 11  N  1S         -0.01797   0.09902  -0.66921  -0.12327   0.29161
 176        2S          0.00887   0.16176   0.01218   0.02138   0.00572
 177        3S          0.07763   0.29306   0.14639   0.06643  -0.01051
 178        4S         -0.27177   0.07390   0.06763  -0.01101  -0.04244
 179        5PX        -0.11794  -0.18482  -0.04751  -0.06443   0.02038
 180        5PY        -0.03366  -0.01390  -0.00720  -0.03071  -0.02109
 181        5PZ         0.00103  -0.02513   0.01413  -0.12743  -0.18414
 182        6PX         0.04592  -0.04727   0.01228   0.08188  -0.02910
 183        6PY        -0.01627  -0.01762  -0.00999  -0.00897  -0.01180
 184        6PZ         0.00113  -0.01233   0.00962  -0.07327  -0.10141
 185        7PX         0.12824   0.06860   0.04740   0.00547  -0.00130
 186        7PY         0.00556   0.00077  -0.00011   0.00206   0.00349
 187        7PZ         0.00086  -0.00050   0.00143  -0.00731  -0.00855
 188        8D 0        0.00066  -0.00535   0.00028  -0.00143   0.00058
 189        8D+1       -0.00106  -0.00270  -0.00203   0.00134  -0.00557
 190        8D-1       -0.00005   0.00001  -0.00018   0.00039   0.00019
 191        8D+2       -0.00310   0.00690  -0.00075   0.00118  -0.00091
 192        8D-2       -0.00220  -0.00206  -0.00291   0.00445  -0.00004
 193        9D 0        0.00334   0.01067  -0.00074  -0.01589   0.01125
 194        9D+1       -0.00293  -0.00123  -0.00388   0.01361   0.00913
 195        9D-1       -0.00007   0.00007  -0.00029   0.00065   0.00034
 196        9D+2        0.00268  -0.00627   0.00415   0.02469  -0.01822
 197        9D-2        0.00421  -0.00489  -0.00453   0.00859   0.00203
 198 12  N  1S         -0.07264  -0.15647   0.49212   0.21194   0.42605
 199        2S         -0.03577  -0.07573   0.01361  -0.03549   0.03725
 200        3S         -0.07239  -0.08795  -0.06394  -0.16553   0.06660
 201        4S         -0.05946  -0.11141  -0.08760  -0.02027   0.02831
 202        5PX         0.08311   0.00829   0.01254   0.00651  -0.00032
 203        5PY        -0.03053  -0.01041  -0.01535   0.00558  -0.01034
 204        5PZ        -0.00589  -0.03507  -0.01175  -0.04380  -0.12902
 205        6PX         0.06936   0.02028   0.04179   0.06117  -0.01443
 206        6PY        -0.01878  -0.00012  -0.00527   0.00221  -0.00509
 207        6PZ        -0.00177  -0.01790  -0.00744  -0.01558  -0.05890
 208        7PX         0.00238   0.01271   0.01347   0.00230  -0.00573
 209        7PY        -0.00039   0.00087   0.00074  -0.00119  -0.00073
 210        7PZ        -0.00063  -0.00138  -0.00219   0.00569   0.00199
 211        8D 0        0.00286   0.00007  -0.00040   0.00012  -0.00009
 212        8D+1        0.00009   0.00247  -0.00037   0.00823   0.01409
 213        8D-1        0.00001   0.00000  -0.00000   0.00002   0.00002
 214        8D+2       -0.00549  -0.00036   0.00064  -0.00032   0.00013
 215        8D-2        0.00281   0.00079   0.00067   0.00169   0.00145
 216        9D 0        0.00480   0.00153   0.00393   0.00675  -0.00026
 217        9D+1       -0.00065   0.00062  -0.00046   0.00343   0.00472
 218        9D-1       -0.00000  -0.00000  -0.00007   0.00014   0.00007
 219        9D+2       -0.00974  -0.00398  -0.00712  -0.01072   0.00049
 220        9D-2        0.00247  -0.00116  -0.00058   0.00140   0.00078
 221 13  H  1S          0.09548  -0.02674   0.02988  -0.10683   0.03451
 222        2S          0.33614  -0.11079   0.05049  -0.19761   0.04501
 223        3S         -0.07765   0.01353   0.00675  -0.01272   0.00221
 224        4PX         0.00330  -0.00216   0.00008  -0.00101   0.00168
 225        4PY         0.00002   0.00293   0.00047   0.00087   0.00002
 226        4PZ         0.00055  -0.00095  -0.00108   0.00205   0.00003
 227        5PX         0.08129  -0.02801   0.01060  -0.04542   0.00746
 228        5PY        -0.00706  -0.00528  -0.00108   0.00038   0.00131
 229        5PZ        -0.00033  -0.00026  -0.00074   0.00206   0.00101
                           6         7         8         9        10
     Eigenvalues --     2.00000   2.00000   2.00000   2.00000   2.00000
   1 1   C  1S         -0.04303  -0.25866   0.05362  -0.10132  -0.04987
   2        2S          0.01347  -0.03122  -0.05348  -0.01389  -0.01238
   3        3S          0.00942   0.10366   0.02322  -0.03516  -0.03930
   4        4S         -0.00144   0.03438  -0.10963  -0.03312   0.24699
   5        5PX         0.07964   0.07548   0.01326  -0.11336  -0.01394
   6        5PY        -0.02527   0.03729   0.05422  -0.07415   0.02624
   7        5PZ         0.07572   0.00838  -0.01501  -0.08006   0.01491
   8        6PX         0.00814   0.02952   0.07408   0.01211  -0.04825
   9        6PY        -0.00769  -0.00533  -0.02923   0.01471  -0.00791
  10        6PZ         0.05207   0.00146  -0.00161  -0.04759   0.01490
  11        7PX        -0.01646  -0.02207  -0.01379   0.00673   0.01594
  12        7PY         0.00535   0.01082  -0.03492   0.01399   0.04553
  13        7PZ        -0.00072  -0.00001   0.00493  -0.00099   0.00563
  14        8D 0       -0.00138   0.00120   0.00221   0.00106  -0.00030
  15        8D+1        0.00722   0.00373  -0.00707  -0.01336  -0.00081
  16        8D-1        0.00027  -0.00207   0.00049   0.00518  -0.00255
  17        8D+2        0.00200   0.00862   0.00446  -0.00986   0.00027
  18        8D-2        0.00143  -0.00030   0.00747  -0.00098  -0.00417
  19        9D 0       -0.00206   0.00143   0.00188  -0.00233  -0.00252
  20        9D+1        0.00594  -0.00037  -0.00184  -0.00323  -0.00134
  21        9D-1       -0.00023  -0.00022  -0.00004   0.00083  -0.00048
  22        9D+2       -0.00916  -0.02066  -0.00100   0.02802  -0.00667
  23        9D-2       -0.00390   0.01404   0.02552  -0.01826   0.00548
  24 2   C  1S          0.10199   0.10868   0.00052   0.20092  -0.18157
  25        2S          0.07167   0.00690  -0.00136  -0.08838   0.02607
  26        3S          0.06716   0.10572   0.20538  -0.19343   0.04106
  27        4S         -0.02894   0.05457   0.19937  -0.07566  -0.28140
  28        5PX        -0.04604  -0.07305   0.01862   0.06718   0.04472
  29        5PY        -0.02307   0.05563   0.17476  -0.08389  -0.04551
  30        5PZ         0.13515   0.05088  -0.12040  -0.20254  -0.03102
  31        6PX         0.00803   0.04425   0.09179  -0.00368  -0.06113
  32        6PY         0.00888   0.02437   0.10607  -0.02294   0.03905
  33        6PZ         0.05475   0.03559  -0.05998  -0.11777  -0.00310
  34        7PX        -0.03475  -0.00722   0.03325   0.00441   0.01361
  35        7PY        -0.01162  -0.00941   0.02761  -0.02237  -0.04821
  36        7PZ         0.00504   0.00376  -0.00614  -0.01192  -0.00032
  37        8D 0       -0.00157  -0.00001   0.00007   0.00319  -0.00042
  38        8D+1       -0.00010   0.00038  -0.00445   0.00078  -0.00477
  39        8D-1        0.00775   0.00106  -0.00991  -0.00546  -0.00826
  40        8D+2        0.00158   0.00101  -0.00108   0.00216  -0.00063
  41        8D-2       -0.00026   0.00075   0.00969  -0.00069  -0.00306
  42        9D 0        0.00388   0.00329   0.00269  -0.00109   0.00114
  43        9D+1        0.01546  -0.00314  -0.00475  -0.00302  -0.00615
  44        9D-1       -0.00913   0.00306  -0.00106   0.00003   0.00078
  45        9D+2       -0.00405  -0.02553  -0.04821   0.00229   0.00539
  46        9D-2        0.02267   0.00426  -0.02384  -0.01069   0.00511
  47 3   C  1S          0.30989   0.18111   0.23386   0.02307  -0.47644
  48        2S          0.05214   0.04234   0.10670  -0.12470  -0.03534
  49        3S         -0.08260   0.01734   0.23712  -0.07864   0.09714
  50        4S         -0.05868  -0.05362  -0.10117   0.23809   0.29845
  51        5PX        -0.00716   0.00652   0.04682   0.04921   0.01417
  52        5PY         0.03572  -0.00159  -0.13396   0.00053  -0.01379
  53        5PZ         0.17206   0.01671  -0.21166  -0.10652  -0.18345
  54        6PX         0.03978   0.02518  -0.02821  -0.00638   0.01618
  55        6PY        -0.01599   0.06499   0.21218  -0.05165   0.06770
  56        6PZ         0.06187   0.02059  -0.10765  -0.06413  -0.08258
  57        7PX         0.02440   0.01374  -0.02320  -0.03046  -0.02803
  58        7PY        -0.05414  -0.00103   0.05523   0.02082  -0.02930
  59        7PZ         0.00084   0.00158  -0.00098  -0.00456   0.00174
  60        8D 0       -0.00369  -0.00208  -0.00365   0.00626  -0.00074
  61        8D+1        0.01512  -0.00742   0.00880   0.00302   0.00404
  62        8D-1       -0.00682  -0.00402  -0.00066   0.01692  -0.00894
  63        8D+2        0.00169   0.01073   0.01110  -0.00495  -0.00404
  64        8D-2        0.00139  -0.00008   0.01516   0.00098   0.00099
  65        9D 0       -0.00519  -0.00080   0.00859   0.00517  -0.00932
  66        9D+1       -0.03619   0.01195   0.00676  -0.00328   0.01573
  67        9D-1       -0.00359  -0.00201  -0.00024   0.00860  -0.00457
  68        9D+2        0.03558   0.04340  -0.01148  -0.04811  -0.04414
  69        9D-2        0.00787  -0.02039  -0.11908   0.00177  -0.01738
  70 4   C  1S         -0.02967  -0.00784   0.01853   0.01806  -0.07730
  71        2S          0.05640  -0.00607  -0.11391  -0.06265  -0.01055
  72        3S          0.06799   0.06706  -0.26123  -0.12704  -0.05994
  73        4S          0.08220   0.12210   0.10316  -0.10347  -0.19246
  74        5PX        -0.02170  -0.08020   0.01561   0.03665   0.02206
  75        5PY        -0.03733  -0.04802   0.04219   0.07644   0.03075
  76        5PZ        -0.00358  -0.03071  -0.13374   0.14105  -0.21274
  77        6PX         0.07219  -0.02091  -0.14623   0.01100  -0.09862
  78        6PY        -0.03960   0.04429   0.20272  -0.01680   0.03455
  79        6PZ        -0.02420  -0.01072  -0.06724   0.07767  -0.10636
  80        7PX         0.02795  -0.01895  -0.03657  -0.01647   0.02927
  81        7PY        -0.03419  -0.01627  -0.01085   0.03654   0.03535
  82        7PZ        -0.00251  -0.00060  -0.00676   0.00669  -0.01021
  83        8D 0       -0.00265   0.00101   0.00210   0.00257   0.00064
  84        8D+1        0.00594   0.00397  -0.00383  -0.01423   0.00317
  85        8D-1       -0.00697  -0.00059   0.01001   0.00350   0.00929
  86        8D+2        0.00201   0.00045  -0.00534   0.00207  -0.00063
  87        8D-2        0.00063  -0.00697  -0.00529   0.00769   0.00165
  88        9D 0        0.00099   0.00205  -0.00589  -0.00592   0.00127
  89        9D+1        0.01476  -0.00374  -0.00507  -0.00084  -0.00731
  90        9D-1        0.00790  -0.00372   0.00096   0.00268  -0.00219
  91        9D+2       -0.02171   0.00415   0.08076  -0.00855   0.01456
  92        9D-2       -0.01464   0.01142   0.03351  -0.01549   0.02278
  93 5   C  1S         -0.02973   0.63351   0.00501   0.36767   0.06520
  94        2S          0.07408  -0.00397  -0.08368   0.02391  -0.01260
  95        3S          0.16520  -0.11036  -0.19259  -0.02035  -0.07510
  96        4S         -0.07677  -0.15211  -0.18426   0.02196   0.19671
  97        5PX         0.01114   0.08521  -0.03742  -0.07484  -0.01473
  98        5PY        -0.05278   0.08807   0.12006  -0.05234  -0.00235
  99        5PZ        -0.04703  -0.06432  -0.02693   0.22468  -0.14610
 100        6PX         0.02563   0.01055  -0.09520   0.03780  -0.05529
 101        6PY        -0.03646   0.02463  -0.03949   0.01523   0.00850
 102        6PZ        -0.02012  -0.04112  -0.00813   0.13103  -0.07943
 103        7PX         0.03364  -0.00059  -0.03057  -0.03518   0.02554
 104        7PY         0.03713   0.02480   0.01534  -0.01888  -0.03292
 105        7PZ        -0.00516  -0.00260   0.00463   0.00961  -0.00002
 106        8D 0       -0.00230   0.00027   0.00363   0.00041   0.00030
 107        8D+1       -0.00021  -0.00062  -0.00775   0.00496  -0.01049
 108        8D-1       -0.00008   0.00221  -0.00047  -0.00572   0.00284
 109        8D+2        0.00191   0.00630  -0.00269  -0.00516  -0.00132
 110        8D-2        0.00080  -0.00626  -0.00418   0.00685   0.00220
 111        9D 0        0.00054   0.00659   0.00102   0.00535  -0.00244
 112        9D+1        0.00353  -0.00192  -0.00213   0.00305  -0.00461
 113        9D-1        0.00082   0.00050  -0.00002  -0.00201   0.00108
 114        9D+2        0.00848  -0.02321  -0.02239   0.02675  -0.00837
 115        9D-2        0.00492   0.01254   0.01828  -0.02949   0.00454
 116 6   C  1S         -0.04693  -0.02146   0.00410  -0.01166   0.15586
 117        2S          0.00101  -0.06400  -0.07956   0.04655   0.03053
 118        3S         -0.01801  -0.09887  -0.07481   0.12717  -0.00650
 119        4S          0.09560   0.01798   0.11731  -0.04105  -0.21902
 120        5PX         0.03947  -0.07840  -0.04843   0.01370   0.00015
 121        5PY         0.07817  -0.06563  -0.06541   0.05391  -0.01458
 122        5PZ        -0.00220  -0.04610   0.02472   0.11822  -0.04390
 123        6PX        -0.01276  -0.01625  -0.03912   0.03558   0.01328
 124        6PY        -0.00482  -0.00877  -0.09285   0.06680  -0.01048
 125        6PZ        -0.00447  -0.02629   0.02128   0.06661  -0.01668
 126        7PX         0.00673   0.01667   0.02851   0.00664  -0.04404
 127        7PY         0.04606   0.02954  -0.00819  -0.02588   0.01188
 128        7PZ         0.00163  -0.00196   0.00060   0.00320  -0.00117
 129        8D 0       -0.00130   0.00121   0.00266  -0.00011   0.00045
 130        8D+1        0.00126  -0.00164  -0.00163   0.00400  -0.00419
 131        8D-1       -0.00544  -0.00317  -0.00050   0.01339  -0.00708
 132        8D+2        0.00102   0.00888   0.00076  -0.00752   0.00033
 133        8D-2        0.00412  -0.00525  -0.00705   0.00492  -0.00116
 134        9D 0       -0.00170  -0.00517  -0.00047   0.00266   0.00367
 135        9D+1       -0.00312   0.00119  -0.00140   0.00057  -0.00116
 136        9D-1       -0.00093  -0.00072  -0.00006   0.00267  -0.00145
 137        9D+2        0.01558  -0.01933  -0.00958  -0.00738   0.00004
 138        9D-2       -0.02065   0.01669  -0.00426   0.00041   0.00094
 139 7   H  1S         -0.00420  -0.07493  -0.06853   0.09513  -0.02214
 140        2S         -0.01191  -0.10723  -0.03348   0.13927  -0.05919
 141        3S         -0.00048  -0.00420  -0.01033   0.01007   0.01278
 142        4PX         0.00147  -0.00049  -0.00259   0.00051  -0.00084
 143        4PY        -0.00068  -0.00339  -0.00463   0.00415  -0.00036
 144        4PZ         0.00240   0.00036  -0.00034  -0.00284   0.00077
 145        5PX        -0.00776  -0.01580   0.00110   0.02104  -0.00552
 146        5PY         0.00141  -0.02068  -0.00327   0.02368  -0.01183
 147        5PZ         0.00056   0.00048   0.00054  -0.00193   0.00145
 148 8   H  1S          0.03358  -0.06571  -0.11875   0.02716   0.07096
 149        2S          0.02539  -0.06661  -0.14833   0.03750   0.10800
 150        3S         -0.00117  -0.00580  -0.00405  -0.00164  -0.01121
 151        4PX        -0.00272   0.00064   0.00373   0.00089  -0.00173
 152        4PY         0.00237  -0.00349  -0.00323  -0.00105   0.00414
 153        4PZ         0.00457   0.00186  -0.00394  -0.00726  -0.00070
 154        5PX         0.00448   0.01059   0.01153  -0.00513  -0.01145
 155        5PY         0.00448  -0.01026  -0.02873   0.00955   0.02111
 156        5PZ        -0.00487   0.00275   0.00078  -0.00346   0.00371
 157 9   H  1S         -0.00151  -0.07911  -0.02936   0.03720   0.02664
 158        2S         -0.02614  -0.11294  -0.01865   0.09661   0.03175
 159        3S          0.00288  -0.00013   0.00319   0.00050  -0.00955
 160        4PX        -0.00069   0.00069   0.00230   0.00048  -0.00031
 161        4PY        -0.00123   0.00330   0.00395   0.00073  -0.00149
 162        4PZ        -0.00044  -0.00110  -0.00443   0.00516  -0.00726
 163        5PX         0.00810   0.01414  -0.01091  -0.01030  -0.00573
 164        5PY         0.00484   0.02386   0.00679  -0.02548  -0.00612
 165        5PZ        -0.00741   0.00121   0.00052   0.00288   0.00037
 166 10  H  1S         -0.00056   0.01305   0.05427  -0.00832  -0.00485
 167        2S          0.00353   0.04065   0.09177  -0.01818  -0.02175
 168        3S         -0.00629  -0.00805  -0.00471  -0.00363   0.01220
 169        4PX         0.00082   0.00184   0.00069  -0.00199  -0.00051
 170        4PY        -0.00193   0.00264   0.00050  -0.00121   0.00022
 171        4PZ        -0.00194  -0.00220  -0.00076   0.00792  -0.00491
 172        5PX         0.00019  -0.00330   0.00881   0.00818  -0.00174
 173        5PY         0.00124  -0.01343  -0.01991   0.00801   0.00336
 174        5PZ        -0.00222  -0.00117   0.00025   0.00497  -0.00217
 175 11  N  1S          0.30709   0.38045  -0.15866   0.23768   0.29300
 176        2S          0.03237   0.03814   0.04419  -0.03321   0.01939
 177        3S          0.00869   0.02916   0.14879  -0.10381   0.05560
 178        4S         -0.02461   0.05567   0.14788  -0.11365  -0.03496
 179        5PX        -0.01854  -0.05912  -0.12618   0.03866   0.00863
 180        5PY         0.03582  -0.00721   0.12369   0.05134   0.00566
 181        5PZ         0.34209  -0.16593   0.12634   0.09268   0.00606
 182        6PX         0.02305   0.02368   0.02766  -0.06485   0.03606
 183        6PY         0.01788  -0.00109   0.08822   0.02915   0.00602
 184        6PZ         0.18946  -0.08691   0.05994   0.04261  -0.00194
 185        7PX        -0.01182   0.03084   0.08132   0.00377   0.01367
 186        7PY        -0.00151   0.00062   0.01184   0.00034   0.00548
 187        7PZ         0.01673  -0.00519  -0.00166   0.00016  -0.00507
 188        8D 0       -0.00016   0.00098   0.00057  -0.00039  -0.00010
 189        8D+1        0.00802  -0.01179   0.02286   0.01508   0.01254
 190        8D-1       -0.00038  -0.00024   0.00001   0.00099  -0.00051
 191        8D+2        0.00056  -0.00030  -0.00038   0.00004  -0.00040
 192        8D-2        0.00041  -0.00073   0.01168   0.00341   0.00070
 193        9D 0       -0.00251  -0.00350  -0.00537   0.01317   0.00336
 194        9D+1       -0.02136  -0.00268   0.02966   0.01353   0.02577
 195        9D-1       -0.00067  -0.00041  -0.00008   0.00171  -0.00089
 196        9D+2        0.00225   0.00245   0.00816  -0.01933  -0.00258
 197        9D-2       -0.00229   0.00113   0.01355  -0.00070   0.00393
 198 12  N  1S          0.27460  -0.02821  -0.09659  -0.05166   0.51684
 199        2S          0.01093  -0.05125  -0.10564   0.08611  -0.02709
 200        3S         -0.03320  -0.08695  -0.17571   0.21216  -0.10101
 201        4S          0.01472  -0.07002  -0.16257   0.07815  -0.02197
 202        5PX         0.00011   0.00928   0.01329   0.04666  -0.04143
 203        5PY         0.02203  -0.00903   0.12579   0.04895   0.00692
 204        5PZ         0.22126  -0.17288   0.23968   0.17081   0.09703
 205        6PX         0.02006   0.02273   0.04157  -0.03366   0.01156
 206        6PY         0.01024  -0.00609   0.04778   0.02363  -0.00052
 207        6PZ         0.10041  -0.08232   0.11315   0.08615   0.04331
 208        7PX        -0.00196   0.01021   0.02224  -0.01595   0.00350
 209        7PY         0.00150  -0.00053  -0.00203   0.00050  -0.00078
 210        7PZ        -0.00539  -0.00352   0.01254   0.00911   0.00812
 211        8D 0       -0.00022   0.00096   0.00093   0.00134  -0.00122
 212        8D+1       -0.02557   0.01455  -0.01466  -0.01059  -0.00349
 213        8D-1       -0.00003   0.00000  -0.00004   0.00002  -0.00002
 214        8D+2        0.00029  -0.00111  -0.00136  -0.00289   0.00207
 215        8D-2       -0.00266   0.00071  -0.01031  -0.00437  -0.00048
 216        9D 0        0.00232   0.00160   0.00365  -0.00474   0.00399
 217        9D+1       -0.00929   0.00329   0.00125  -0.00122   0.00378
 218        9D-1       -0.00014  -0.00007   0.00001   0.00031  -0.00015
 219        9D+2       -0.00398  -0.00234  -0.00537   0.00773  -0.00716
 220        9D-2       -0.00100   0.00080   0.00144  -0.00133   0.00134
 221 13  H  1S         -0.02519   0.04306  -0.00316   0.00011   0.01019
 222        2S         -0.04627   0.10058   0.00711  -0.01369   0.02199
 223        3S          0.00311   0.01114   0.00753  -0.00192  -0.01361
 224        4PX        -0.00115  -0.00097  -0.00256   0.00222   0.00117
 225        4PY         0.00160  -0.00177  -0.00141   0.00122  -0.00045
 226        4PZ        -0.00020  -0.00157   0.00099   0.00408  -0.00137
 227        5PX        -0.00868   0.02600   0.00157  -0.00706   0.00451
 228        5PY        -0.00869   0.00549   0.00258  -0.00147   0.00059
 229        5PZ        -0.00204  -0.00022   0.00063   0.00201  -0.00021
                          11        12        13        14        15
     Eigenvalues --     2.00000   2.00000   2.00000   2.00000   2.00000
   1 1   C  1S         -0.07771   0.03528  -0.19496   0.16449   0.00422
   2        2S          0.00883  -0.01718   0.11253  -0.07579   0.04598
   3        3S          0.04201   0.04686   0.20674  -0.14329   0.11366
   4        4S         -0.00307   0.04547  -0.06838   0.22647  -0.18214
   5        5PX         0.10260  -0.04556  -0.22085   0.07784   0.00361
   6        5PY         0.00585   0.11696   0.15563  -0.08934  -0.09164
   7        5PZ         0.11217  -0.11368  -0.11499  -0.21378   0.01057
   8        6PX         0.00684   0.04685   0.00134   0.04157   0.08655
   9        6PY        -0.01029  -0.01672   0.06657  -0.11139   0.06314
  10        6PZ         0.05489  -0.06622  -0.05876  -0.11701   0.00809
  11        7PX        -0.02460  -0.00472   0.00711   0.10442   0.08192
  12        7PY         0.00919   0.00391  -0.00787   0.00670  -0.06554
  13        7PZ         0.00021  -0.00739  -0.00509  -0.00799  -0.00255
  14        8D 0       -0.00084   0.00164  -0.00246   0.00091  -0.00220
  15        8D+1        0.00030  -0.00198   0.00368  -0.00151   0.00836
  16        8D-1        0.00828  -0.00141  -0.00794  -0.00909  -0.00416
  17        8D+2        0.00807   0.00119  -0.01068   0.00378  -0.00199
  18        8D-2        0.00361  -0.00243  -0.01237   0.00911   0.01277
  19        9D 0        0.00068   0.00218   0.00174  -0.00323  -0.00525
  20        9D+1        0.00150   0.00051   0.00117  -0.00148   0.00243
  21        9D-1        0.00240  -0.00117  -0.00275  -0.00310  -0.00095
  22        9D+2       -0.02696   0.00919   0.05698  -0.01354   0.01444
  23        9D-2       -0.00623   0.03727   0.00558  -0.02001  -0.03204
  24 2   C  1S         -0.53435   0.27082  -0.29407  -0.18133   0.21877
  25        2S          0.05352  -0.06132  -0.08360  -0.03913   0.11403
  26        3S          0.27119  -0.12950  -0.23888   0.11164   0.27326
  27        4S          0.05154   0.08120   0.09740   0.04111  -0.03517
  28        5PX        -0.06521   0.00654   0.10818  -0.05089   0.05021
  29        5PY         0.07032   0.10405  -0.03057   0.12910   0.10587
  30        5PZ         0.07010  -0.05098   0.00214  -0.10284   0.11772
  31        6PX        -0.01829   0.01558   0.02365   0.00054   0.14877
  32        6PY         0.11040  -0.06034   0.00659   0.00133   0.18620
  33        6PZ         0.02633  -0.04024   0.00011  -0.05541   0.06323
  34        7PX        -0.01875   0.04023   0.03742   0.11452   0.06035
  35        7PY        -0.01294  -0.00201   0.01822   0.02279   0.03595
  36        7PZ         0.00190  -0.00372   0.00064  -0.00444   0.00667
  37        8D 0       -0.00126   0.00028  -0.00046   0.00343  -0.00335
  38        8D+1       -0.00443   0.00946   0.00911   0.01363   0.00312
  39        8D-1        0.00456   0.00649   0.00429   0.00280   0.00624
  40        8D+2        0.00415  -0.00231   0.00062   0.00129   0.00499
  41        8D-2        0.00496   0.00233  -0.00860   0.01111   0.01317
  42        9D 0       -0.00101   0.00173  -0.01286   0.00662   0.00917
  43        9D+1        0.00160   0.00747   0.00730   0.00449   0.00583
  44        9D-1        0.00006  -0.00174  -0.00242  -0.00064  -0.00150
  45        9D+2       -0.04108  -0.00985  -0.00791  -0.03590  -0.05176
  46        9D-2       -0.01144  -0.03963  -0.02114  -0.06090   0.01953
  47 3   C  1S         -0.00853  -0.43349   0.22919   0.05515  -0.12036
  48        2S          0.03302   0.09141   0.00293  -0.05015  -0.04062
  49        3S          0.14949   0.27550   0.03427  -0.14844   0.08301
  50        4S         -0.02326   0.11436   0.13556   0.17960   0.04564
  51        5PX         0.04334   0.06625   0.05757  -0.01866   0.03407
  52        5PY        -0.08363  -0.01000   0.00820  -0.12114  -0.26497
  53        5PZ         0.08200   0.16210   0.11537   0.09483   0.13670
  54        6PX        -0.00436  -0.00476   0.01218   0.03421  -0.07526
  55        6PY         0.20962  -0.02016  -0.01245  -0.14185   0.32059
  56        6PZ         0.02735   0.07415   0.06161   0.05685   0.07119
  57        7PX         0.00996  -0.02763  -0.01604   0.02064  -0.03282
  58        7PY        -0.01586   0.07857   0.10369   0.21718   0.03102
  59        7PZ        -0.00648   0.00174   0.00706   0.00750   0.00385
  60        8D 0       -0.00292  -0.00516  -0.00005  -0.00004   0.00297
  61        8D+1       -0.00759   0.00270   0.00805   0.00585   0.00063
  62        8D-1        0.00362   0.01238  -0.00020   0.00889  -0.00696
  63        8D+2        0.00700   0.01465  -0.00631   0.00357  -0.00383
  64        8D-2        0.01104  -0.00187  -0.00492   0.00633   0.01938
  65        9D 0        0.00381  -0.00623   0.00484  -0.00267   0.00659
  66        9D+1       -0.01089  -0.01616  -0.00804  -0.00192  -0.00634
  67        9D-1        0.00194   0.00642   0.00005   0.00440  -0.00342
  68        9D+2       -0.06320  -0.00601  -0.07201   0.01097  -0.05523
  69        9D-2       -0.07256  -0.00399   0.01158  -0.03519  -0.14202
  70 4   C  1S         -0.29673   0.24171  -0.04088  -0.30087   0.22111
  71        2S         -0.12982   0.00577  -0.01306   0.08624  -0.21358
  72        3S         -0.25174  -0.01322  -0.11628   0.16351  -0.55934
  73        4S          0.11876  -0.10627  -0.12290  -0.48101  -0.00352
  74        5PX         0.05881  -0.01500   0.10873  -0.11669   0.09964
  75        5PY         0.04346  -0.02691   0.07402   0.14277   0.17797
  76        5PZ         0.14388   0.20067  -0.00179   0.07796  -0.02333
  77        6PX        -0.15031  -0.03703  -0.02094  -0.08566  -0.19869
  78        6PY         0.13738   0.05401  -0.01782  -0.06452   0.26097
  79        6PZ         0.06851   0.10297  -0.00201   0.04755  -0.01673
  80        7PX        -0.01669  -0.02960  -0.05962  -0.09120  -0.03812
  81        7PY        -0.00855   0.04204   0.05211   0.11034   0.02777
  82        7PZ         0.00590   0.00998   0.00060   0.00539  -0.00102
  83        8D 0        0.00287  -0.00005   0.00135  -0.00146   0.00567
  84        8D+1       -0.00764  -0.00151   0.00931   0.00571   0.00929
  85        8D-1       -0.00497  -0.00791  -0.00426  -0.00386  -0.00547
  86        8D+2       -0.00362  -0.00166  -0.00160   0.00324  -0.00714
  87        8D-2       -0.00211  -0.00971  -0.00364   0.01763   0.01490
  88        9D 0       -0.00808   0.00742  -0.00152  -0.00564  -0.01320
  89        9D+1        0.00191   0.00886   0.00709   0.00569   0.00485
  90        9D-1        0.00041   0.00386   0.00264   0.00197   0.00033
  91        9D+2        0.04710   0.01644   0.01125   0.00625   0.09038
  92        9D-2        0.05929   0.01174   0.00264  -0.07473   0.03077
  93 5   C  1S          0.07308  -0.11505   0.12110   0.04356   0.08758
  94        2S         -0.03869  -0.08581  -0.04620   0.04638  -0.08895
  95        3S         -0.17464  -0.14774  -0.27636   0.10307  -0.20358
  96        4S         -0.10536   0.07623   0.03724   0.44684   0.02436
  97        5PX        -0.10709   0.06252  -0.06825   0.13284  -0.17485
  98        5PY         0.05260   0.09435   0.10232  -0.12406  -0.08197
  99        5PZ         0.17807   0.10866  -0.11901  -0.05351  -0.11347
 100        6PX        -0.09107   0.02076   0.04743  -0.07385  -0.12811
 101        6PY         0.01030   0.03664   0.09790   0.00394  -0.00390
 102        6PZ         0.09352   0.06457  -0.06089  -0.02283  -0.06469
 103        7PX        -0.01308  -0.02467  -0.05920  -0.04401  -0.08435
[...]
 ! R10   R(5,6)                  1.4044         -DE/DX =    0.0                 !
 ! R11   R(5,10)                 1.0891         -DE/DX =    0.0                 !
 ! R12   R(6,13)                 1.0902         -DE/DX =    0.0                 !
 ! R13   R(11,12)                1.114          -DE/DX =    0.0                 !
 ! A1    A(2,1,6)              120.2126         -DE/DX =    0.0                 !
 ! A2    A(2,1,7)              119.4941         -DE/DX =    0.0                 !
 ! A3    A(6,1,7)              120.2933         -DE/DX =    0.0                 !
 ! A4    A(1,2,3)              116.9108         -DE/DX =    0.0                 !
 ! A5    A(1,2,8)              122.0873         -DE/DX =    0.0                 !
 ! A6    A(3,2,8)              121.0019         -DE/DX =    0.0                 !
 ! A7    A(2,3,4)              124.3057         -DE/DX =    0.0                 !
 ! A8    A(2,3,11)             117.8471         -DE/DX =    0.0                 !
 ! A9    A(4,3,11)             117.8471         -DE/DX =    0.0                 !
 ! A10   A(3,4,5)              116.9108         -DE/DX =    0.0                 !
 ! A11   A(3,4,9)              121.0019         -DE/DX =    0.0                 !
 ! A12   A(5,4,9)              122.0873         -DE/DX =    0.0                 !
 ! A13   A(4,5,6)              120.2126         -DE/DX =    0.0                 !
 ! A14   A(4,5,10)             119.4941         -DE/DX =    0.0                 !
 ! A15   A(6,5,10)             120.2933         -DE/DX =    0.0                 !
 ! A16   A(1,6,5)              121.4474         -DE/DX =    0.0                 !
 ! A17   A(1,6,13)             119.2763         -DE/DX =    0.0                 !
 ! A18   A(5,6,13)             119.2763         -DE/DX =    0.0                 !
 ! A19   L(3,11,12,9,-1)       180.0            -DE/DX =    0.0                 !
 ! A20   L(3,11,12,9,-2)       180.0            -DE/DX =    0.0                 !
 ! D1    D(6,1,2,3)              0.0            -DE/DX =    0.0                 !
 ! D2    D(6,1,2,8)            180.0            -DE/DX =    0.0                 !
 ! D3    D(7,1,2,3)            180.0            -DE/DX =    0.0                 !
 ! D4    D(7,1,2,8)              0.0            -DE/DX =    0.0                 !
 ! D5    D(2,1,6,5)              0.0            -DE/DX =    0.0                 !
 ! D6    D(2,1,6,13)           180.0            -DE/DX =    0.0                 !
 ! D7    D(7,1,6,5)            180.0            -DE/DX =    0.0                 !
 ! D8    D(7,1,6,13)             0.0            -DE/DX =    0.0                 !
 ! D9    D(1,2,3,4)              0.0            -DE/DX =    0.0                 !
 ! D10   D(1,2,3,11)          -180.0            -DE/DX =    0.0                 !
 ! D11   D(8,2,3,4)           -180.0            -DE/DX =    0.0                 !
 ! D12   D(8,2,3,11)             0.0            -DE/DX =    0.0                 !
 ! D13   D(2,3,4,5)              0.0            -DE/DX =    0.0                 !
 ! D14   D(2,3,4,9)           -180.0            -DE/DX =    0.0                 !
 ! D15   D(11,3,4,5)           180.0            -DE/DX =    0.0                 !
 ! D16   D(11,3,4,9)             0.0            -DE/DX =    0.0                 !
 ! D17   D(3,4,5,6)              0.0            -DE/DX =    0.0                 !
 ! D18   D(3,4,5,10)          -180.0            -DE/DX =    0.0                 !
 ! D19   D(9,4,5,6)            180.0            -DE/DX =    0.0                 !
 ! D20   D(9,4,5,10)             0.0            -DE/DX =    0.0                 !
 ! D21   D(4,5,6,1)              0.0            -DE/DX =    0.0                 !
 ! D22   D(4,5,6,13)          -180.0            -DE/DX =    0.0                 !
 ! D23   D(10,5,6,1)           180.0            -DE/DX =    0.0                 !
 ! D24   D(10,5,6,13)            0.0            -DE/DX =    0.0                 !
 --------------------------------------------------------------------------------
 GradGradGradGradGradGradGradGradGradGradGradGradGradGradGradGradGradGrad

 Leave Link  103 at Wed Mar 20 21:20:01 2019, MaxMem=   524288000 cpu:               1.6 elap:               0.3
 (Enter /home/ubuntu/g16/l9999.exe)

 ----------------------------------------------------------------------

 Electric dipole moment (input orientation):
 (Debye = 10**-18 statcoulomb cm , SI units = C m)
                  (au)            (Debye)         (10**-30 SI)
   Tot        0.212705D+00      0.540643D+00      0.180339D+01
   x          0.201830D+00      0.513000D+00      0.171118D+01
   y          0.213170D-01      0.541825D-01      0.180733D+00
   z         -0.636704D-01     -0.161834D+00     -0.539820D+00

 Dipole polarizability, Alpha (input orientation).
 (esu units = cm**3 , SI units = C**2 m**2 J**-1)
 Alpha(0;0):
               (au)            (10**-24 esu)      (10**-40 SI)
   iso        0.821263D+02      0.121699D+02      0.135408D+02
   aniso      0.715542D+02      0.106032D+02      0.117977D+02
   xx         0.118617D+03      0.175772D+02      0.195573D+02
   yx         0.620329D+00      0.919232D-01      0.102278D+00
   yy         0.713385D+02      0.105713D+02      0.117621D+02
   zx        -0.197173D+02     -0.292181D+01     -0.325095D+01
   zy        -0.162242D+02     -0.240417D+01     -0.267500D+01
   zz         0.564236D+02      0.836111D+01      0.930299D+01

 ----------------------------------------------------------------------

 Dipole orientation:
     6          0.71092247         -0.55015544         -2.43698473
     6          0.73806059         -0.51636461          0.18711630
     6         -0.53195981         -2.50271099          1.43280093
     6         -1.80733305         -4.48586876          0.18726896
     6         -1.78894044         -4.44693095         -2.43687973
     6         -0.54108491         -2.49733941         -3.73475043
     1          1.66565427          0.94542945         -3.47965248
     1          1.68989964          0.96516797          1.25130408
     1         -2.75713660         -5.96834893          1.25197748
     1         -2.74997851         -5.93891311         -3.47889969
     7         -0.52688984         -2.50605435          4.04547931
     7         -0.52299311         -2.50832008          6.15059292
     1         -0.54345089         -2.49577100         -5.79483034

 Electric dipole moment (dipole orientation):
 (Debye = 10**-18 statcoulomb cm , SI units = C m)
                  (au)            (Debye)         (10**-30 SI)
   Tot        0.212705D+00      0.540643D+00      0.180339D+01
   x          0.000000D+00      0.000000D+00      0.000000D+00
   y          0.000000D+00      0.000000D+00      0.000000D+00
   z          0.212705D+00      0.540643D+00      0.180339D+01

 Dipole polarizability, Alpha (dipole orientation).
 (esu units = cm**3 , SI units = C**2 m**2 J**-1)
 Alpha(0;0):
               (au)            (10**-24 esu)      (10**-40 SI)
   iso        0.821263D+02      0.121699D+02      0.135408D+02
   aniso      0.715542D+02      0.106032D+02      0.117977D+02
   xx         0.531032D+02      0.786909D+01      0.875554D+01
   yx         0.166826D+02      0.247211D+01      0.275059D+01
   yy         0.684142D+02      0.101379D+02      0.112800D+02
   zx         0.149128D+00      0.220985D-01      0.245879D-01
   zy        -0.927160D-01     -0.137391D-01     -0.152868D-01
   zz         0.124861D+03      0.185026D+02      0.205869D+02

 ----------------------------------------------------------------------
 1\1\GINC-LC06-3-8\Freq\UB3LYP\Aug-CC-pVDZ\C6H5N2(1+)\UBUNTU\20-Mar-201
 9\0\\#P Geom=AllCheck Guess=TCheck SCRF=Check GenChk UB3LYP/Aug-CC-pVD
 Z Freq\\PhN2+_UB3LYP-aug-cc-pVDZ\\1,1\C,-1.129446782,0.1321043475,0.77
 2168508\C,0.1938859849,0.2524753543,0.3683401968\C,0.5360717173,1.4107
 288609,-0.3613389365\C,-0.3733792315,2.4353975488,-0.6992612267\C,-1.6
 865208316,2.2750718225,-0.2764205133\C,-2.0599353503,1.1342086064,0.45
 23448046\H,-1.4399323033,-0.745479361,1.3374033394\H,0.9402810775,-0.5
 058838121,0.5991376071\H,-0.0505182571,3.3070781811,-1.2662077727\H,-2
 .4236844787,3.0404498256,-0.5147941904\N,1.8486448708,1.5508474302,-0.
 7724693958\N,2.90621055,1.6635276697,-1.103846831\H,-3.0946669659,1.02
 42235262,0.7773944105\\Version=ES64L-G16RevA.03\State=1-A\HF=-340.8808
 369\S2=0.\S2-1=0.\S2A=0.\RMSD=3.423e-09\RMSF=3.377e-05\ZeroPoint=0.098
 545\Thermal=0.1047247\Dipole=0.2018296,0.021317,-0.0636704\DipoleDeriv
 =-0.4457558,0.2310803,-0.0309629,0.2060846,0.00761,-0.0917062,-0.01681
 64,-0.0977328,-0.0047534,0.3307399,-0.1147671,-0.0213274,0.3554636,0.0
 023643,-0.0934685,-0.282375,0.0261278,0.0539283,-0.9293403,-0.1370236,
 0.3264751,-0.1371634,0.1648182,-0.0256697,0.3265118,-0.0257315,-0.0130
 421,0.4123528,0.2027582,-0.2182497,-0.267466,-0.0313417,0.0834497,0.04
 26372,-0.0363124,0.0060355,-0.1783809,-0.294045,0.1926221,-0.2688329,-
 0.1022352,0.0898587,0.1790204,0.0962547,-0.1621441,0.2971238,-0.014128
 5,-0.0639188,-0.0144046,0.1836942,-0.0896977,-0.0643609,-0.0899204,0.0
 817351,0.0900728,0.0046538,0.0101994,0.0101495,0.0873685,0.02682,0.007
 1912,0.027966,0.1229383,0.0665663,0.0092562,0.0166076,0.0016463,0.1231
 281,0.0156346,0.0207994,0.0136636,0.1391582,0.0733405,-0.0110329,0.026
 1434,-0.0034494,0.1204168,0.0184203,0.0219205,0.0205501,0.1350462,0.08
 89246,0.0122871,0.0062362,0.006892,0.0879932,0.0273021,0.0092687,0.026
 0569,0.1234773,1.7925265,0.1906012,-0.4947288,0.190648,0.1766724,-0.00
 12255,-0.4948328,-0.0012454,0.3880983,-0.6781751,-0.080884,0.2392414,-
 0.0808134,0.0754836,0.0269284,0.2393364,0.0269659,0.0112748,0.080005,0
 .0012443,0.0116625,0.0012458,0.1040275,0.0133539,0.0116994,0.0133574,0
 .1182475\Polar=118.6169003,0.6203287,71.3384503,-19.7173376,-16.224158
 6,56.4235982\Quadrupole=6.7003158,-0.9531869,-5.7471289,-0.4580459,-3.
 7824982,-4.4520294\PG=C01 [X(C6H5N2)]\NImag=0\\0.64805255,-0.02297569,
 0.59432849,-0.11740532,-0.24814833,0.30389925,-0.33170098,-0.04140280,
 0.09103155,0.69726172,0.00937792,-0.11291284,0.02450013,-0.11079422,0.
 56604499,0.06283916,0.03742092,-0.10122902,-0.08253894,-0.21298324,0.2
 7054187,-0.01993789,-0.02237570,0.01940743,-0.08669711,-0.02609085,0.0
 2236707,0.50889039,-0.05810565,0.01244530,0.01207324,0.00234688,-0.241
 07146,0.10222420,-0.07198213,0.54813148,0.03924881,0.00299717,-0.00406
 400,0.00657536,0.10947698,-0.11814541,-0.05928341,-0.22034226,0.255642
 20,-0.04744981,0.01419019,0.00269290,0.03783618,0.02907693,-0.02262867
 ,-0.14216278,0.07767937,-0.02115995,0.64307895,0.02140334,-0.00769780,
 -0.00444340,0.00260129,-0.03645943,0.02648645,0.10610504,-0.21814861,0
 .06322069,-0.00932141,0.58778746,-0.00131273,-0.00262037,-0.00411691,-
 0.00792541,0.01973574,0.00348516,-0.03695497,0.07048361,-0.08551239,-0
 .12493358,-0.25131681,0.30284986,0.05336357,0.00387500,-0.01371940,-0.
 02652320,-0.02495835,0.01911045,-0.05429942,0.04192762,-0.00755816,-0.
 33142072,-0.04195448,0.09114247,0.68940235,0.02914967,-0.03525652,0.01
 651249,-0.01775145,-0.01627002,0.01027729,0.00620935,0.02653337,-0.012
 10294,0.00882483,-0.11299949,0.02472794,-0.10041787,0.57706439,-0.0277
 4409,0.02295146,0.00214484,0.01510077,0.01210172,-0.01646586,0.0122799
 2,-0.02118922,0.01622188,0.06293943,0.03763502,-0.10137167,-0.08470447
 ,-0.21944195,0.27989349,-0.21119518,0.12663299,-0.03375490,-0.04407696
 ,0.01728963,0.00341117,-0.00358965,0.00933551,-0.00638286,-0.00054009,
 -0.03317176,0.02036842,-0.13883314,-0.06156065,0.05233629,0.70643404,0
 .07381629,-0.21851868,0.06503725,0.04828784,0.03365979,-0.02704425,0.0
 0932173,-0.04130477,0.01591884,-0.06416127,0.01581908,0.01147851,-0.00
 875223,-0.24820702,0.10266237,-0.04336243,0.54074274,-0.00443577,0.051
 63179,-0.09503263,-0.01378691,-0.01916301,0.02123367,-0.00640065,0.015
 92605,-0.01556937,0.03757596,0.00358403,-0.00447149,0.02302210,0.11607
 596,-0.13785122,-0.11745874,-0.20549883,0.29503653,-0.07906753,-0.0651
 9204,0.04617385,-0.00581525,-0.02372758,0.01568275,-0.00351542,0.00086
 152,0.00207291,-0.00085637,0.00044776,-0.00035006,-0.00245716,0.004026
 31,0.00012661,0.00962267,0.01812639,-0.01134530,0.08150664,-0.06562818
 ,-0.24242161,0.12910175,0.00179795,0.00275818,0.00029606,0.00109356,0.
 00293591,0.00170092,0.00055651,-0.00025197,-0.00069948,0.00380030,0.00
 014736,0.00274866,-0.00735008,-0.01159314,0.01081165,0.06717625,0.2490
 6555,0.04641202,0.12893793,-0.12286244,0.00153230,0.00680521,-0.000037
 86,0.00194724,0.00176533,0.00503304,-0.00040423,-0.00067496,-0.0007789
 8,0.00025255,0.00269331,0.00528891,0.00277713,0.00436985,0.00141196,-0
 .05121828,-0.14043966,0.11736084,-0.01173306,0.02054988,-0.00687294,-0
 .19344153,0.14299988,-0.03929501,0.00837215,-0.01000499,0.00419088,0.0
 0014683,-0.00197904,0.00219249,-0.00056257,-0.00063751,0.00016943,-0.0
 0412852,-0.00085579,0.00347133,0.00074176,-0.00049614,-0.00101025,0.19
 877217,-0.00440119,0.00815045,-0.00002527,0.14137814,-0.19487353,0.052
 11115,0.01517788,-0.01231282,0.00465524,-0.00259210,-0.00091294,0.0036
 2744,-0.00012278,0.00019716,-0.00078767,-0.00091744,0.00196140,0.00337
 576,-0.00055882,-0.00045388,-0.00199535,-0.14970177,0.19885527,0.00699
 560,-0.00638024,0.00784435,-0.03841166,0.05169443,-0.05500011,-0.00977
 854,0.01106461,-0.00062007,0.00252686,0.00347045,0.00186917,-0.0001190
 7,-0.00065692,-0.00088381,0.00349795,0.00336896,0.00486706,-0.00097350
 ,-0.00200869,-0.00294430,0.03856526,-0.05894998,0.04683503,-0.00062380
 ,-0.00000823,-0.00016404,-0.00295655,0.00321891,0.00009401,0.00636350,
 0.01892832,-0.01136926,-0.08151337,-0.06807108,0.04940758,-0.00161047,
 -0.02333262,0.01492559,-0.00519775,0.00107741,0.00266369,0.00003280,-0
 .00012084,-0.00014028,0.00054367,0.00085020,-0.00025818,0.08195267,-0.
 00052727,0.00022197,-0.00070023,0.00383095,0.00036421,0.00129124,-0.00
 624290,-0.01149223,0.00966189,-0.06645698,-0.24049804,0.13057789,0.001
 62265,0.00400533,0.00074184,0.00113470,0.00239713,0.00262107,-0.000115
 61,-0.00019311,-0.00029926,-0.00025103,-0.00008313,0.00087532,0.068901
 07,0.24649065,0.00011672,-0.00082904,-0.00084722,-0.00024319,0.0014473
 5,0.00369284,0.00262420,0.00324319,0.00056531,0.04850497,0.13101773,-0
 .12129722,0.00106619,0.00708315,0.00187315,0.00262549,0.00262219,0.005
 49799,-0.00014350,-0.00029645,-0.00058241,0.00035286,0.00059419,0.0009
 5692,-0.05307412,-0.14128644,0.11601471,0.00055296,-0.00182861,0.00261
 335,-0.00016160,-0.00074627,0.00013537,-0.00244677,-0.00091448,0.00278
 228,-0.01562307,0.02013041,-0.00617133,-0.18925901,0.14059932,-0.04015
 958,0.01012156,-0.00826979,0.00317709,0.00040839,-0.00046783,0.0000932
 4,-0.00001494,-0.00003149,-0.00017754,0.00069276,-0.00040325,-0.001045
 49,0.19681855,-0.00160261,-0.00107861,0.00481145,-0.00084864,-0.000534
 06,-0.00018458,-0.00114411,0.00249832,0.00252053,-0.00538899,0.0067690
 2,-0.00010019,0.14104642,-0.19696081,0.05167101,0.01718688,-0.01179029
 ,0.00471133,0.00080604,-0.00060958,-0.00000056,-0.00002637,-0.00017392
 ,-0.00033325,-0.00046707,-0.00043863,-0.00203153,-0.14862014,0.2015082
 2,0.00248881,0.00487048,0.00350961,0.00019898,-0.00020848,-0.00119173,
 0.00291437,0.00245644,0.00440179,0.00801020,-0.00658685,0.00575094,-0.
 04041274,0.05181096,-0.05814037,-0.01096811,0.01115660,0.00112046,-0.0
 0061453,0.00032482,-0.00026379,-0.00018120,-0.00033061,-0.00055457,-0.
 00101234,-0.00204844,-0.00290975,0.03937253,-0.05955649,0.04961023,0.0
 2167914,-0.01163992,0.00324995,-0.05539836,-0.03619706,0.03218958,-0.1
 3894750,0.00098088,0.02301322,-0.08377447,0.01489897,0.01103413,0.0103
 1246,0.01941022,-0.01110400,-0.00381438,0.00098743,-0.00004850,-0.0010
 6708,0.00006920,0.00073801,0.00208711,0.00251333,-0.00298472,0.0033359
 9,-0.00292046,-0.00028243,-0.00175098,-0.00039132,0.00116690,1.4760602
 9,-0.00182728,-0.00498336,0.00826031,-0.03819972,0.00089310,0.00489539
 ,0.00099673,-0.08801296,0.02298268,0.01689147,0.01253641,-0.01556988,0
 .00961490,-0.00031606,0.00277391,0.00098228,-0.00634369,0.00222704,-0.
 00167030,0.00105815,0.00094336,-0.00058264,-0.00032262,-0.00198315,0.0
 0017512,-0.00083998,-0.00189221,0.00134827,0.00133633,0.00001362,0.140
 04736,0.13757071,-0.00218359,0.01076195,0.00366180,0.03329791,0.004385
 34,-0.01867802,0.02300877,0.02298872,-0.06474051,0.00992934,-0.0150648
 0,-0.00193784,-0.00564932,0.00028713,0.01035377,-0.00004921,0.00222186
 ,-0.00311049,0.00170416,0.00049561,0.00127426,-0.00126764,-0.00276961,
 -0.00230504,-0.00200435,-0.00110739,-0.00303949,0.00020034,0.00046008,
 0.00167881,-0.42867720,-0.05910810,0.23696925,-0.00962060,0.00370996,-
 0.00017503,0.01255114,0.01724000,-0.01153692,-0.07317831,-0.01143304,0
 .02834159,0.02089241,-0.01108349,0.00206604,-0.00643072,-0.00642833,0.
 00464648,0.00316049,0.00006313,-0.00066995,-0.00011101,0.00023875,-0.0
 0027403,-0.00017875,-0.00124748,0.00095131,-0.00090112,0.00137696,-0.0
 0032365,0.00017096,-0.00021350,-0.00009484,-1.22785543,-0.12747492,0.3
 7182777,1.28107895,-0.00047349,0.00115424,-0.00174226,0.00453054,-0.00
 012062,0.00157666,-0.01144703,0.02067292,-0.00114998,0.00162482,-0.003
 54248,0.00421777,-0.00224858,-0.00015356,-0.00056987,0.00006641,0.0014
 4596,-0.00044256,0.00031401,-0.00037227,-0.00024741,0.00002585,-0.0001
 1883,0.00052216,0.00010350,0.00017845,0.00033894,-0.00029000,-0.000487
 41,-0.00002749,-0.12745904,-0.05213183,0.03726981,0.13513930,0.0333841
 9,0.00214638,-0.00280881,-0.00119393,-0.00448579,-0.00165278,0.0068550
 7,0.02834129,-0.00115507,0.00679610,-0.00499333,0.00744746,0.00193111,
 0.00232158,0.00049266,-0.00307057,-0.00066905,-0.00044049,0.00109657,-
 0.00031737,-0.00022667,-0.00046521,0.00024360,0.00084594,0.00030280,0.
 00038368,0.00001507,0.00072804,-0.00005309,-0.00004835,-0.00063204,0.3
 7183879,0.03727610,-0.15855771,-0.39473461,-0.03998895,0.14575710,-0.0
 1231937,-0.00353502,0.00692258,-0.00087751,0.00331107,0.00016999,0.001
 14881,0.00038021,-0.00047140,0.00138631,-0.00000554,0.00143696,-0.0016
 8198,0.00190874,0.00118761,-0.31796309,-0.02627870,0.08423563,0.000577
 55,-0.00066946,-0.00070542,-0.00060431,-0.00034648,0.00016624,-0.00011
 832,0.00005116,-0.00017805,0.00049118,-0.00033659,-0.00086803,-0.00086
 678,-0.00030126,-0.00013697,0.00042199,0.00011372,-0.00002208,0.330405
 52,0.02179417,0.00656897,-0.00523712,0.00422324,-0.00147832,0.00363270
 ,0.00037843,-0.00087444,0.00046024,-0.00092338,-0.00240120,0.00545784,
 -0.02343260,0.00221586,0.00870271,-0.02626604,-0.05826852,0.01413972,-
 0.00049393,-0.00006957,-0.00185781,0.00095969,0.00008739,-0.00068370,-
 0.00125469,-0.00011261,-0.00001108,-0.00050611,-0.00003857,-0.00187456
 ,-0.00029958,-0.00044419,-0.00082059,0.00011265,0.00009122,0.00024388,
 0.02570814,0.05472397,-0.00716600,0.00121508,0.00828629,-0.00034496,0.
 00386061,0.00493940,-0.00047274,0.00046116,-0.00000856,0.00194010,0.00
 522498,0.00360027,0.01524781,0.00224092,0.00200746,0.08426643,0.014147
 14,-0.07422902,-0.00079775,-0.00180851,-0.00243401,-0.00055881,-0.0003
 5124,-0.00036742,0.00054804,-0.00034257,-0.00065286,-0.00076718,-0.001
 91945,-0.00237961,-0.00013374,-0.00081907,-0.00156880,-0.00002416,0.00
 024318,0.00045267,-0.09173704,-0.02215224,0.06235419\\0.00009051,0.000
 04123,0.00007919,-0.00004110,-0.00000875,-0.00004272,0.00001157,-0.000
 03975,0.00002520,-0.00005143,0.00003471,0.00003389,0.00000998,-0.00001
 606,0.00003608,-0.00003539,-0.00000478,-0.00007777,-0.00002068,-0.0000
 1669,-0.00003858,-0.00000413,-0.00000402,-0.00000571,0.00000894,-0.000
 01797,-0.00002781,0.00000770,-0.00000665,-0.00002723,0.00002315,0.0000
 3587,0.00001750,-0.00001376,-0.00001255,-0.00000581,0.00001463,0.00001
 542,0.00003376\\\@


 What some people mistake for the high cost
 of living is really the cost of living high.
                              -- Doug Larson
 Job cpu time:       0 days  1 hours 24 minutes 46.1 seconds.
 Elapsed time:       0 days  0 hours 12 minutes 18.4 seconds.
 File lengths (MBytes):  RWF=    136 Int=      0 D2E=      0 Chk=      7 Scr=      1
 Normal termination of Gaussian 16 at Wed Mar 20 21:20:01 2019.
