 Entering Gaussian System, Link 0=/home/ubuntu/g16/g16
 Input=s-4-NO2C6H3_UB3LYP-aug-cc-pVDZ-Opt.gjf
 Output=s-4-NO2C6H3_UB3LYP-aug-cc-pVDZ-Opt.log
 Initial command:
 /home/ubuntu/g16/l1.exe "/home/ubuntu/g16/Gau-30247.inp" -scrdir="/home/ubuntu/g16/"
 Entering Link 1 = /home/ubuntu/g16/l1.exe PID=     30249.
  
 Copyright (c) 1988,1990,1992,1993,1995,1998,2003,2009,2016,
            Gaussian, Inc.  All Rights Reserved.
  
 This is part of the Gaussian(R) 16 program.  It is based on
 the Gaussian(R) 09 system (copyright 2009, Gaussian, Inc.),
 the Gaussian(R) 03 system (copyright 2003, Gaussian, Inc.),
 the Gaussian(R) 98 system (copyright 1998, Gaussian, Inc.),
 the Gaussian(R) 94 system (copyright 1995, Gaussian, Inc.),
 the Gaussian 92(TM) system (copyright 1992, Gaussian, Inc.),
 the Gaussian 90(TM) system (copyright 1990, Gaussian, Inc.),
 the Gaussian 88(TM) system (copyright 1988, Gaussian, Inc.),
 the Gaussian 86(TM) system (copyright 1986, Carnegie Mellon
 University), and the Gaussian 82(TM) system (copyright 1983,
 Carnegie Mellon University). Gaussian is a federally registered
 trademark of Gaussian, Inc.
  
 This software contains proprietary and confidential information,
 including trade secrets, belonging to Gaussian, Inc.
  
 This software is provided under written license and may be
 used, copied, transmitted, or stored only in accord with that
 written license.
  
 The following legend is applicable only to US Government
 contracts under FAR:
  
                    RESTRICTED RIGHTS LEGEND
  
 Use, reproduction and disclosure by the US Government is
 subject to restrictions as set forth in subparagraphs (a)
 and (c) of the Commercial Computer Software - Restricted
 Rights clause in FAR 52.227-19.
  
 Gaussian, Inc.
 340 Quinnipiac St., Bldg. 40, Wallingford CT 06492
  
  
 ---------------------------------------------------------------
 Warning -- This program may not be used in any manner that
 competes with the business of Gaussian, Inc. or will provide
 assistance to any competitor of Gaussian, Inc.  The licensee
 of this program is prohibited from giving any competitor of
 Gaussian, Inc. access to this program.  By using this program,
 the user acknowledges that Gaussian, Inc. is engaged in the
 business of creating and licensing software in the field of
 computational chemistry and represents and warrants to the
 licensee that it is not a competitor of Gaussian, Inc. and that
 it will not use this program in any manner prohibited above.
 ---------------------------------------------------------------
  

 Cite this work as:
 Gaussian 16, Revision A.03,
 M. J. Frisch, G. W. Trucks, H. B. Schlegel, G. E. Scuseria, 
 M. A. Robb, J. R. Cheeseman, G. Scalmani, V. Barone, 
 G. A. Petersson, H. Nakatsuji, X. Li, M. Caricato, A. V. Marenich, 
 J. Bloino, B. G. Janesko, R. Gomperts, B. Mennucci, H. P. Hratchian, 
 J. V. Ortiz, A. F. Izmaylov, J. L. Sonnenberg, D. Williams-Young, 
 F. Ding, F. Lipparini, F. Egidi, J. Goings, B. Peng, A. Petrone, 
 T. Henderson, D. Ranasinghe, V. G. Zakrzewski, J. Gao, N. Rega, 
 G. Zheng, W. Liang, M. Hada, M. Ehara, K. Toyota, R. Fukuda, 
 J. Hasegawa, M. Ishida, T. Nakajima, Y. Honda, O. Kitao, H. Nakai, 
 T. Vreven, K. Throssell, J. A. Montgomery, Jr., J. E. Peralta, 
 F. Ogliaro, M. J. Bearpark, J. J. Heyd, E. N. Brothers, K. N. Kudin, 
 V. N. Staroverov, T. A. Keith, R. Kobayashi, J. Normand, 
 K. Raghavachari, A. P. Rendell, J. C. Burant, S. S. Iyengar, 
 J. Tomasi, M. Cossi, J. M. Millam, M. Klene, C. Adamo, R. Cammi, 
 J. W. Ochterski, R. L. Martin, K. Morokuma, O. Farkas, 
 J. B. Foresman, and D. J. Fox, Gaussian, Inc., Wallingford CT, 2016.
 
 ******************************************
 Gaussian 16:  ES64L-G16RevA.03 25-Dec-2016
                 5-Nov-2016 
 ******************************************
 %chk=s-4-NO2C6H3_UB3LYP-aug-cc-pVDZ-Opt.chk
 %mem=500MW
 %nproc=7
 Will use up to    7 processors via shared memory.
 ----------------------------------------------------------------------
 #p opt=(maxcycles=777) freq ub3lyp/aug-cc-pVDZ pop=(Bonding,AllOrbital
 s,mk,no,nboread)
 ----------------------------------------------------------------------
 1/6=777,18=20,19=15,26=3,38=1/1,3;
 2/9=110,12=2,17=6,18=5,40=1/2;
 3/5=16,7=10,11=2,25=1,30=1,71=1,74=-5,116=2/1,2,3;
 4//1;
 5/5=2,38=5/2;
 6/7=2,8=2,9=2,10=2,15=8,20=1,22=-1,27=20,28=1,31=1,40=2,96=-1/1,2,7;
 7//1,2,3,16;
 1/6=777,18=20,19=15,26=3/3(2);
 2/9=110/2;
 99//99;
 2/9=110/2;
 3/5=16,7=10,11=2,25=1,30=1,71=1,74=-5,116=2/1,2,3;
 4/5=5,16=3,69=1/1;
 5/5=2,38=5/2;
 7//1,2,3,16;
 1/6=777,18=20,19=15,26=3/3(-5);
 2/9=110/2;
 6/7=2,8=2,9=2,10=2,15=8,19=2,20=1,22=-1,27=20,28=1,31=1,40=2,96=-1/1,2,7;
 99/9=1/99;
 Leave Link    1 at Sat Nov  5 22:07:58 2016, MaxMem=   524288000 cpu:               0.3 elap:               0.0
 (Enter /home/ubuntu/g16/l101.exe)
 ------------------------------
 s-4-NO2C6H3_UB3LYP-aug-cc-pVDZ
 ------------------------------
 Symbolic Z-matrix:
 Charge =  0 Multiplicity = 1
 C                    -1.20773  -0.42203  -0.01313 
 C                    -0.7428    0.73599  -0.11701 
 C                     0.59006   1.09983  -0.15398 
 C                     1.39097  -0.06365  -0.05632 
 N                     2.86004   0.11421  -0.07998 
 O                     3.29026   1.26034  -0.1753 
 O                     3.56387  -0.88936  -0.00413 
 C                     0.88055  -1.37326   0.06134 
 C                    -0.50717  -1.61646   0.08898 
 H                     1.02273   2.09158  -0.2435 
 H                     1.58476  -2.19932   0.13357 
 H                    -0.92427  -2.61624   0.18201 
 
 ITRead=  0  0  0  0  0  0  0  0  0  0  0  0
 MicOpt= -1 -1 -1 -1 -1 -1 -1 -1 -1 -1 -1 -1
 NAtoms=     12 NQM=       12 NQMF=       0 NMMI=      0 NMMIF=      0
                NMic=       0 NMicF=      0.
                    Isotopes and Nuclear Properties:
 (Nuclear quadrupole moments (NQMom) in fm**2, nuclear magnetic moments (NMagM)
  in nuclear magnetons)

  Atom         1           2           3           4           5           6           7           8           9          10
 IAtWgt=          12          12          12          12          14          16          16          12          12           1
 AtmWgt=  12.0000000  12.0000000  12.0000000  12.0000000  14.0030740  15.9949146  15.9949146  12.0000000  12.0000000   1.0078250
 NucSpn=           0           0           0           0           2           0           0           0           0           1
 AtZEff=  -0.0000000  -0.0000000  -0.0000000  -0.0000000  -0.0000000  -0.0000000  -0.0000000  -0.0000000  -0.0000000  -0.0000000
 NQMom=    0.0000000   0.0000000   0.0000000   0.0000000   2.0440000   0.0000000   0.0000000   0.0000000   0.0000000   0.0000000
 NMagM=    0.0000000   0.0000000   0.0000000   0.0000000   0.4037610   0.0000000   0.0000000   0.0000000   0.0000000   2.7928460
 AtZNuc=   6.0000000   6.0000000   6.0000000   6.0000000   7.0000000   8.0000000   8.0000000   6.0000000   6.0000000   1.0000000

  Atom        11          12
 IAtWgt=           1           1
 AtmWgt=   1.0078250   1.0078250
 NucSpn=           1           1
 AtZEff=  -0.0000000  -0.0000000
 NQMom=    0.0000000   0.0000000
 NMagM=    2.7928460   2.7928460
 AtZNuc=   1.0000000   1.0000000
 Leave Link  101 at Sat Nov  5 22:07:58 2016, MaxMem=   524288000 cpu:               1.3 elap:               0.2
 (Enter /home/ubuntu/g16/l103.exe)

 GradGradGradGradGradGradGradGradGradGradGradGradGradGradGradGradGradGrad
 Berny optimization.
 Initialization pass.
                           ----------------------------
                           !    Initial Parameters    !
                           ! (Angstroms and Degrees)  !
 --------------------------                            --------------------------
 ! Name  Definition              Value          Derivative Info.                !
 --------------------------------------------------------------------------------
 ! R1    R(1,2)                  1.2522         estimate D2E/DX2                !
 ! R2    R(1,9)                  1.3885         estimate D2E/DX2                !
 ! R3    R(2,3)                  1.3821         estimate D2E/DX2                !
 ! R4    R(3,4)                  1.4159         estimate D2E/DX2                !
 ! R5    R(3,10)                 1.0857         estimate D2E/DX2                !
 ! R6    R(4,5)                  1.48           estimate D2E/DX2                !
 ! R7    R(4,8)                  1.4105         estimate D2E/DX2                !
 ! R8    R(5,6)                  1.2279         estimate D2E/DX2                !
 ! R9    R(5,7)                  1.2281         estimate D2E/DX2                !
 ! R10   R(8,9)                  1.4091         estimate D2E/DX2                !
 ! R11   R(8,11)                 1.0879         estimate D2E/DX2                !
 ! R12   R(9,12)                 1.0873         estimate D2E/DX2                !
 ! A1    A(2,1,9)              127.9023         estimate D2E/DX2                !
 ! A2    A(1,2,3)              127.1377         estimate D2E/DX2                !
 ! A3    A(2,3,4)              109.1073         estimate D2E/DX2                !
 ! A4    A(2,3,10)             128.8273         estimate D2E/DX2                !
 ! A5    A(4,3,10)             122.0653         estimate D2E/DX2                !
 ! A6    A(3,4,5)              117.4928         estimate D2E/DX2                !
 ! A7    A(3,4,8)              124.3349         estimate D2E/DX2                !
 ! A8    A(5,4,8)              118.1722         estimate D2E/DX2                !
 ! A9    A(4,5,6)              117.4641         estimate D2E/DX2                !
 ! A10   A(4,5,7)              118.0133         estimate D2E/DX2                !
 ! A11   A(6,5,7)              124.5225         estimate D2E/DX2                !
 ! A12   A(4,8,9)              121.2154         estimate D2E/DX2                !
 ! A13   A(4,8,11)             118.4447         estimate D2E/DX2                !
 ! A14   A(9,8,11)             120.3397         estimate D2E/DX2                !
 ! A15   A(1,9,8)              110.3023         estimate D2E/DX2                !
 ! A16   A(1,9,12)             127.1389         estimate D2E/DX2                !
 ! A17   A(8,9,12)             122.5585         estimate D2E/DX2                !
 ! D1    D(9,1,2,3)             -0.038          estimate D2E/DX2                !
 ! D2    D(2,1,9,8)             -0.0137         estimate D2E/DX2                !
 ! D3    D(2,1,9,12)           179.7842         estimate D2E/DX2                !
 ! D4    D(1,2,3,4)              0.0888         estimate D2E/DX2                !
 ! D5    D(1,2,3,10)           179.971          estimate D2E/DX2                !
 ! D6    D(2,3,4,5)            179.9014         estimate D2E/DX2                !
 ! D7    D(2,3,4,8)             -0.098          estimate D2E/DX2                !
 ! D8    D(10,3,4,5)             0.0097         estimate D2E/DX2                !
 ! D9    D(10,3,4,8)          -179.9898         estimate D2E/DX2                !
 ! D10   D(3,4,5,6)              0.3967         estimate D2E/DX2                !
 ! D11   D(3,4,5,7)           -179.5622         estimate D2E/DX2                !
 ! D12   D(8,4,5,6)           -179.6039         estimate D2E/DX2                !
 ! D13   D(8,4,5,7)              0.4373         estimate D2E/DX2                !
 ! D14   D(3,4,8,9)              0.0612         estimate D2E/DX2                !
 ! D15   D(3,4,8,11)          -179.7831         estimate D2E/DX2                !
 ! D16   D(5,4,8,9)           -179.9382         estimate D2E/DX2                !
 ! D17   D(5,4,8,11)             0.2175         estimate D2E/DX2                !
 ! D18   D(4,8,9,1)              0.0009         estimate D2E/DX2                !
 ! D19   D(4,8,9,12)          -179.808          estimate D2E/DX2                !
 ! D20   D(11,8,9,1)           179.8423         estimate D2E/DX2                !
 ! D21   D(11,8,9,12)            0.0334         estimate D2E/DX2                !
 --------------------------------------------------------------------------------
 Trust Radius=3.00D-01 FncErr=1.00D-07 GrdErr=1.00D-06 EigMax=2.50D+02 EigMin=1.00D-04
 Number of steps in this run=    100 maximum allowed number of steps=    100.
 GradGradGradGradGradGradGradGradGradGradGradGradGradGradGradGradGradGrad

 Leave Link  103 at Sat Nov  5 22:07:58 2016, MaxMem=   524288000 cpu:               0.0 elap:               0.0
 (Enter /home/ubuntu/g16/l202.exe)
                          Input orientation:                          
 ---------------------------------------------------------------------
 Center     Atomic      Atomic             Coordinates (Angstroms)
 Number     Number       Type             X           Y           Z
 ---------------------------------------------------------------------
      1          6           0       -1.207730   -0.422030   -0.013130
      2          6           0       -0.742800    0.735990   -0.117010
      3          6           0        0.590060    1.099830   -0.153980
      4          6           0        1.390970   -0.063650   -0.056320
      5          7           0        2.860040    0.114210   -0.079980
      6          8           0        3.290260    1.260340   -0.175300
      7          8           0        3.563870   -0.889360   -0.004130
      8          6           0        0.880550   -1.373260    0.061340
      9          6           0       -0.507170   -1.616460    0.088980
     10          1           0        1.022730    2.091580   -0.243500
     11          1           0        1.584760   -2.199320    0.133570
     12          1           0       -0.924270   -2.616240    0.182010
 ---------------------------------------------------------------------
                    Distance matrix (angstroms):
                    1          2          3          4          5
     1  C    0.000000
     2  C    1.252183   0.000000
     3  C    2.359649   1.382122   0.000000
     4  C    2.623651   2.279492   1.415867   0.000000
     5  N    4.103508   3.656287   2.475830   1.479987   0.000000
     6  O    4.805058   4.067421   2.705050   2.318277   1.227921
     7  O    4.794439   4.604553   3.580905   2.325084   1.228122
     8  C    2.295931   2.667585   2.499384   1.410479   2.480105
     9  C    1.388479   2.373178   2.939587   2.456678   3.789706
    10  H    3.368421   2.229511   1.085719   2.194460   2.704152
    11  H    3.313349   3.754513   3.457818   2.152835   2.650352
    12  H    2.221033   3.370429   4.026818   3.454396   4.673863
                    6          7          8          9         10
     6  O    0.000000
     7  O    2.173792   0.000000
     8  C    3.577506   2.727389   0.000000
     9  C    4.771404   4.136509   1.409141   0.000000
    10  H    2.416051   3.924372   3.481129   4.025009   0.000000
    11  H    3.869545   2.377358   1.087890   2.172069   4.343948
    12  H    5.737404   4.812501   2.194752   1.087284   5.112283
                   11         12
    11  H    0.000000
    12  H    2.543895   0.000000
 Stoichiometry    C6H3NO2
 Framework group  C1[X(C6H3NO2)]
 Deg. of freedom    30
 Full point group                 C1      NOp   1
 Largest Abelian subgroup         C1      NOp   1
 Largest concise Abelian subgroup C1      NOp   1
                         Standard orientation:                         
 ---------------------------------------------------------------------
 Center     Atomic      Atomic             Coordinates (Angstroms)
 Number     Number       Type             X           Y           Z
 ---------------------------------------------------------------------
      1          6           0        2.487097   -0.225607   -0.001333
      2          6           0        1.796528   -1.270151   -0.003105
      3          6           0        0.417238   -1.358581   -0.001527
      4          6           0       -0.130877   -0.053113    0.000460
      5          7           0       -1.605850    0.068599    0.000108
      6          8           0       -2.259843   -0.970657    0.005657
      7          8           0       -2.091551    1.196577   -0.006464
      8          6           0        0.635042    1.131291    0.002728
      9          6           0        2.043581    1.090127    0.001891
     10          1           0       -0.207972   -2.246215   -0.003410
     11          1           0        0.113185    2.085830    0.007758
     12          1           0        2.655238    1.989038    0.006668
 ---------------------------------------------------------------------
 Rotational constants (GHZ):           4.1056855           1.3837250           1.0349338
 Leave Link  202 at Sat Nov  5 22:07:58 2016, MaxMem=   524288000 cpu:               0.0 elap:               0.0
 (Enter /home/ubuntu/g16/l301.exe)
 Standard basis: Aug-CC-pVDZ (5D, 7F)
 Ernie: Thresh=  0.10000D-02 Tol=  0.10000D-05 Strict=F.
 Ernie:  18 primitive shells out of 246 were deleted.
 There are   252 symmetry adapted cartesian basis functions of A   symmetry.
 There are   234 symmetry adapted basis functions of A   symmetry.
   234 basis functions,   420 primitive gaussians,   252 cartesian basis functions
    31 alpha electrons       31 beta electrons
       nuclear repulsion energy       391.7370920473 Hartrees.
 IExCor=  402 DFT=T Ex+Corr=B3LYP ExCW=0 ScaHFX=  0.200000
 ScaDFX=  0.800000  0.720000  1.000000  0.810000 ScalE2=  1.000000  1.000000
 IRadAn=      5 IRanWt=     -1 IRanGd=            0 ICorTp=0 IEmpDi=  4
 NAtoms=   12 NActive=   12 NUniq=   12 SFac= 1.00D+00 NAtFMM=   60 NAOKFM=F Big=F
 Integral buffers will be    131072 words long.
 Raffenetti 2 integral format.
 Two-electron integral symmetry is turned on.
 Leave Link  301 at Sat Nov  5 22:07:58 2016, MaxMem=   524288000 cpu:               0.2 elap:               0.0
 (Enter /home/ubuntu/g16/l302.exe)
 NPDir=0 NMtPBC=     1 NCelOv=     1 NCel=       1 NClECP=     1 NCelD=      1
         NCelK=      1 NCelE2=     1 NClLst=     1 CellRange=     0.0.
 One-electron integrals computed using PRISM.
 One-electron integral symmetry used in STVInt
 NBasis=   234 RedAO= T EigKep=  3.52D-06  NBF=   234
 NBsUse=   234 1.00D-06 EigRej= -1.00D+00 NBFU=   234
 Precomputing XC quadrature grid using
 IXCGrd= 4 IRadAn=           5 IRanWt=          -1 IRanGd=           0 AccXCQ= 0.00D+00.
 Generated NRdTot=       0 NPtTot=           0 NUsed=           0 NTot=          32
 NSgBfM=   252   252   252   252   252 MxSgAt=    12 MxSgA2=    12.
 Leave Link  302 at Sat Nov  5 22:07:58 2016, MaxMem=   524288000 cpu:               1.9 elap:               0.3
 (Enter /home/ubuntu/g16/l303.exe)
 DipDrv:  MaxL=1.
 Leave Link  303 at Sat Nov  5 22:07:59 2016, MaxMem=   524288000 cpu:               0.3 elap:               0.0
 (Enter /home/ubuntu/g16/l401.exe)
 ExpMin= 2.97D-02 ExpMax= 1.17D+04 ExpMxC= 4.01D+02 IAcc=3 IRadAn=         5 AccDes= 0.00D+00
 Harris functional with IExCor=  402 and IRadAn=       5 diagonalized for initial guess.
 HarFok:  IExCor=  402 AccDes= 0.00D+00 IRadAn=         5 IDoV= 1 UseB2=F ITyADJ=14
 ICtDFT=  3500011 ScaDFX=  1.000000  1.000000  1.000000  1.000000
 FoFCou: FMM=F IPFlag=           0 FMFlag=      100000 FMFlg1=           0
         NFxFlg=           0 DoJE=T BraDBF=F KetDBF=T FulRan=T
         wScrn=  0.000000 ICntrl=       500 IOpCl=  0 I1Cent=   200000004 NGrid=           0
         NMat0=    1 NMatS0=      1 NMatT0=    0 NMatD0=    1 NMtDS0=    0 NMtDT0=    0
 Petite list used in FoFCou.
 Harris En= -435.489670942214    
 JPrj=0 DoOrth=F DoCkMO=F.
 Initial guess <Sx>= 0.0000 <Sy>= 0.0000 <Sz>= 0.0000 <S**2>=-0.0000 S=-0.0000
 Leave Link  401 at Sat Nov  5 22:08:00 2016, MaxMem=   524288000 cpu:              12.5 elap:               1.8
 (Enter /home/ubuntu/g16/l502.exe)
 Integral symmetry usage will be decided dynamically.
 UHF open shell SCF:
 Using DIIS extrapolation, IDIIS=  1040.
 NGot=   524288000 LenX=   524156866 LenY=   524092921
 Requested convergence on RMS density matrix=1.00D-08 within 128 cycles.
 Requested convergence on MAX density matrix=1.00D-06.
 Requested convergence on             energy=1.00D-06.
 No special actions if energy rises.
 Fock matrices will be formed incrementally for  20 cycles.

 Cycle   1  Pass 1  IDiag  1:
 FoFJK:  IHMeth= 1 ICntrl=       0 DoSepK=F KAlg= 0 I1Cent=           0 FoldK=F
 IRaf= 990000000 NMat=       1 IRICut=       1 DoRegI=T DoRafI=F ISym2E= 0 IDoP0=0 IntGTp=1.
 FoFCou: FMM=F IPFlag=           0 FMFlag=      100000 FMFlg1=           0
         NFxFlg=           0 DoJE=F BraDBF=F KetDBF=F FulRan=T
         wScrn=  0.000000 ICntrl=         0 IOpCl=  1 I1Cent=           0 NGrid=           0
         NMat0=    1 NMatS0=      1 NMatT0=    0 NMatD0=    1 NMtDS0=    0 NMtDT0=    0
 Symmetry not used in FoFCou.
 E= -435.228471096544    
 DIIS: error= 2.65D-02 at cycle   1 NSaved=   1.
 NSaved= 1 IEnMin= 1 EnMin= -435.228471096544     IErMin= 1 ErrMin= 2.65D-02
 ErrMax= 2.65D-02  0.00D+00 EMaxC= 1.00D-01 BMatC= 1.15D+00 BMatP= 1.15D+00
 IDIUse=3 WtCom= 7.35D-01 WtEn= 2.65D-01
 Coeff-Com:  0.100D+01
 Coeff-En:   0.100D+01
 Coeff:      0.100D+01
 Gap=     0.210 Goal=   None    Shift=    0.000
 Gap=     0.210 Goal=   None    Shift=    0.000
 GapD=    0.210 DampG=1.000 DampE=0.500 DampFc=0.5000 IDamp=-1.
 Damping current iteration by 5.00D-01
 RMSDP=3.13D-02 MaxDP=1.04D+00              OVMax= 3.56D-01

 Cycle   2  Pass 1  IDiag  1:
 RMSU=  8.63D-03    CP:  8.29D-01
 E= -435.270655174964     Delta-E=       -0.042184078420 Rises=F Damp=T
 DIIS: error= 1.70D-02 at cycle   2 NSaved=   2.
 NSaved= 2 IEnMin= 2 EnMin= -435.270655174964     IErMin= 2 ErrMin= 1.70D-02
 ErrMax= 1.70D-02  0.00D+00 EMaxC= 1.00D-01 BMatC= 2.47D-01 BMatP= 1.15D+00
 IDIUse=3 WtCom= 8.30D-01 WtEn= 1.70D-01
 Coeff-Com:  0.288D+00 0.712D+00
 Coeff-En:   0.422D+00 0.578D+00
 Coeff:      0.311D+00 0.689D+00
 Gap=     0.181 Goal=   None    Shift=    0.000
 Gap=     0.181 Goal=   None    Shift=    0.000
 RMSDP=1.33D-02 MaxDP=5.11D-01 DE=-4.22D-02 OVMax= 2.37D-01

 Cycle   3  Pass 1  IDiag  1:
 RMSU=  5.19D-03    CP:  6.75D-01  1.39D+00
 E= -435.457112819558     Delta-E=       -0.186457644594 Rises=F Damp=F
 DIIS: error= 6.16D-03 at cycle   3 NSaved=   3.
 NSaved= 3 IEnMin= 3 EnMin= -435.457112819558     IErMin= 3 ErrMin= 6.16D-03
 ErrMax= 6.16D-03  0.00D+00 EMaxC= 1.00D-01 BMatC= 5.08D-02 BMatP= 2.47D-01
 IDIUse=3 WtCom= 9.38D-01 WtEn= 6.16D-02
 Coeff-Com:  0.119D+00 0.329D+00 0.552D+00
 Coeff-En:   0.000D+00 0.000D+00 0.100D+01
 Coeff:      0.112D+00 0.308D+00 0.580D+00
 Gap=     0.190 Goal=   None    Shift=    0.000
 Gap=     0.190 Goal=   None    Shift=    0.000
 RMSDP=2.97D-03 MaxDP=1.42D-01 DE=-1.86D-01 OVMax= 7.38D-02

 Cycle   4  Pass 1  IDiag  1:
 RMSU=  1.76D-03    CP:  6.90D-01  1.21D+00  7.44D-01
 E= -435.461390266040     Delta-E=       -0.004277446482 Rises=F Damp=F
 DIIS: error= 4.93D-03 at cycle   4 NSaved=   4.
 NSaved= 4 IEnMin= 4 EnMin= -435.461390266040     IErMin= 4 ErrMin= 4.93D-03
 ErrMax= 4.93D-03  0.00D+00 EMaxC= 1.00D-01 BMatC= 3.52D-02 BMatP= 5.08D-02
 IDIUse=3 WtCom= 9.51D-01 WtEn= 4.93D-02
 Coeff-Com:  0.482D-01 0.122D+00 0.429D+00 0.400D+00
 Coeff-En:   0.000D+00 0.000D+00 0.428D+00 0.572D+00
 Coeff:      0.458D-01 0.116D+00 0.429D+00 0.409D+00
 Gap=     0.185 Goal=   None    Shift=    0.000
 Gap=     0.185 Goal=   None    Shift=    0.000
 RMSDP=8.80D-04 MaxDP=4.44D-02 DE=-4.28D-03 OVMax= 5.92D-02

 Cycle   5  Pass 1  IDiag  1:
 RMSU=  6.34D-04    CP:  6.89D-01  1.21D+00  7.93D-01  6.90D-01
 E= -435.469644655751     Delta-E=       -0.008254389711 Rises=F Damp=F
 DIIS: error= 2.54D-03 at cycle   5 NSaved=   5.
 NSaved= 5 IEnMin= 5 EnMin= -435.469644655751     IErMin= 5 ErrMin= 2.54D-03
 ErrMax= 2.54D-03  0.00D+00 EMaxC= 1.00D-01 BMatC= 5.85D-03 BMatP= 3.52D-02
 IDIUse=3 WtCom= 9.75D-01 WtEn= 2.54D-02
 Coeff-Com:  0.151D-01 0.263D-01 0.225D+00 0.313D+00 0.421D+00
 Coeff-En:   0.000D+00 0.000D+00 0.000D+00 0.163D+00 0.837D+00
 Coeff:      0.147D-01 0.256D-01 0.219D+00 0.309D+00 0.431D+00
 Gap=     0.182 Goal=   None    Shift=    0.000
 Gap=     0.182 Goal=   None    Shift=    0.000
 RMSDP=4.03D-04 MaxDP=1.67D-02 DE=-8.25D-03 OVMax= 2.15D-02

 Cycle   6  Pass 1  IDiag  1:
 RMSU=  2.37D-04    CP:  6.89D-01  1.23D+00  8.05D-01  6.54D-01  5.57D-01
 E= -435.471113364207     Delta-E=       -0.001468708457 Rises=F Damp=F
 DIIS: error= 5.16D-04 at cycle   6 NSaved=   6.
 NSaved= 6 IEnMin= 6 EnMin= -435.471113364207     IErMin= 6 ErrMin= 5.16D-04
 ErrMax= 5.16D-04  0.00D+00 EMaxC= 1.00D-01 BMatC= 4.65D-04 BMatP= 5.85D-03
 IDIUse=3 WtCom= 9.95D-01 WtEn= 5.16D-03
 Coeff-Com:  0.320D-02 0.399D-03 0.844D-01 0.142D+00 0.277D+00 0.492D+00
 Coeff-En:   0.000D+00 0.000D+00 0.000D+00 0.000D+00 0.563D-01 0.944D+00
 Coeff:      0.319D-02 0.397D-03 0.840D-01 0.142D+00 0.276D+00 0.495D+00
 Gap=     0.182 Goal=   None    Shift=    0.000
 Gap=     0.182 Goal=   None    Shift=    0.000
 RMSDP=1.22D-04 MaxDP=5.32D-03 DE=-1.47D-03 OVMax= 4.06D-03

 Cycle   7  Pass 1  IDiag  1:
 RMSU=  8.81D-05    CP:  6.88D-01  1.23D+00  8.00D-01  6.75D-01  6.03D-01
                    CP:  7.74D-01
 E= -435.471214108200     Delta-E=       -0.000100743993 Rises=F Damp=F
 DIIS: error= 2.47D-04 at cycle   7 NSaved=   7.
 NSaved= 7 IEnMin= 7 EnMin= -435.471214108200     IErMin= 7 ErrMin= 2.47D-04
 ErrMax= 2.47D-04  0.00D+00 EMaxC= 1.00D-01 BMatC= 7.90D-05 BMatP= 4.65D-04
 IDIUse=3 WtCom= 9.98D-01 WtEn= 2.47D-03
 Coeff-Com:  0.772D-03-0.231D-02 0.350D-01 0.651D-01 0.147D+00 0.344D+00
 Coeff-Com:  0.410D+00
 Coeff-En:   0.000D+00 0.000D+00 0.000D+00 0.000D+00 0.000D+00 0.111D+00
 Coeff-En:   0.889D+00
 Coeff:      0.770D-03-0.231D-02 0.349D-01 0.649D-01 0.146D+00 0.344D+00
 Coeff:      0.411D+00
 Gap=     0.182 Goal=   None    Shift=    0.000
 Gap=     0.182 Goal=   None    Shift=    0.000
 RMSDP=4.12D-05 MaxDP=1.32D-03 DE=-1.01D-04 OVMax= 2.70D-03

 Cycle   8  Pass 1  IDiag  1:
 RMSU=  3.54D-05    CP:  6.88D-01  1.23D+00  8.01D-01  6.72D-01  6.03D-01
                    CP:  7.69D-01  8.12D-01
 E= -435.471228127085     Delta-E=       -0.000014018884 Rises=F Damp=F
 DIIS: error= 1.26D-04 at cycle   8 NSaved=   8.
 NSaved= 8 IEnMin= 8 EnMin= -435.471228127085     IErMin= 8 ErrMin= 1.26D-04
 ErrMax= 1.26D-04  0.00D+00 EMaxC= 1.00D-01 BMatC= 1.82D-05 BMatP= 7.90D-05
 IDIUse=3 WtCom= 9.99D-01 WtEn= 1.26D-03
 Coeff-Com:  0.364D-04-0.198D-02 0.116D-01 0.249D-01 0.646D-01 0.180D+00
 Coeff-Com:  0.324D+00 0.397D+00
 Coeff-En:   0.000D+00 0.000D+00 0.000D+00 0.000D+00 0.000D+00 0.000D+00
 Coeff-En:   0.195D+00 0.805D+00
 Coeff:      0.364D-04-0.198D-02 0.116D-01 0.248D-01 0.645D-01 0.180D+00
 Coeff:      0.323D+00 0.397D+00
 Gap=     0.182 Goal=   None    Shift=    0.000
 Gap=     0.182 Goal=   None    Shift=    0.000
 RMSDP=1.92D-05 MaxDP=5.81D-04 DE=-1.40D-05 OVMax= 9.87D-04

 Cycle   9  Pass 1  IDiag  1:
 RMSU=  1.07D-05    CP:  6.88D-01  1.23D+00  8.02D-01  6.71D-01  6.00D-01
                    CP:  7.68D-01  7.24D-01  6.56D-01
 E= -435.471231721161     Delta-E=       -0.000003594076 Rises=F Damp=F
 DIIS: error= 2.55D-05 at cycle   9 NSaved=   9.
 NSaved= 9 IEnMin= 9 EnMin= -435.471231721161     IErMin= 9 ErrMin= 2.55D-05
 ErrMax= 2.55D-05  0.00D+00 EMaxC= 1.00D-01 BMatC= 6.43D-07 BMatP= 1.82D-05
 IDIUse=1 WtCom= 1.00D+00 WtEn= 0.00D+00
 Coeff-Com: -0.507D-04-0.101D-02 0.329D-02 0.832D-02 0.238D-01 0.702D-01
 Coeff-Com:  0.143D+00 0.222D+00 0.531D+00
 Coeff:     -0.507D-04-0.101D-02 0.329D-02 0.832D-02 0.238D-01 0.702D-01
 Coeff:      0.143D+00 0.222D+00 0.531D+00
 Gap=     0.182 Goal=   None    Shift=    0.000
 Gap=     0.182 Goal=   None    Shift=    0.000
 RMSDP=5.46D-06 MaxDP=1.77D-04 DE=-3.59D-06 OVMax= 2.21D-04

 Cycle  10  Pass 1  IDiag  1:
 RMSU=  3.70D-06    CP:  6.88D-01  1.23D+00  8.02D-01  6.72D-01  6.01D-01
                    CP:  7.65D-01  7.42D-01  6.20D-01  7.77D-01
 E= -435.471231870231     Delta-E=       -0.000000149070 Rises=F Damp=F
 DIIS: error= 8.23D-06 at cycle  10 NSaved=  10.
 NSaved=10 IEnMin=10 EnMin= -435.471231870231     IErMin=10 ErrMin= 8.23D-06
 ErrMax= 8.23D-06  0.00D+00 EMaxC= 1.00D-01 BMatC= 7.80D-08 BMatP= 6.43D-07
 IDIUse=1 WtCom= 1.00D+00 WtEn= 0.00D+00
 Coeff-Com: -0.707D-05-0.182D-03-0.170D-03 0.185D-03 0.147D-02 0.558D-02
 Coeff-Com:  0.182D-01 0.490D-01 0.290D+00 0.635D+00
 Coeff:     -0.707D-05-0.182D-03-0.170D-03 0.185D-03 0.147D-02 0.558D-02
 Coeff:      0.182D-01 0.490D-01 0.290D+00 0.635D+00
 Gap=     0.182 Goal=   None    Shift=    0.000
 Gap=     0.182 Goal=   None    Shift=    0.000
 RMSDP=1.86D-06 MaxDP=6.26D-05 DE=-1.49D-07 OVMax= 7.06D-05

 Cycle  11  Pass 1  IDiag  1:
 RMSU=  1.14D-06    CP:  6.88D-01  1.23D+00  8.02D-01  6.72D-01  6.02D-01
                    CP:  7.67D-01  7.38D-01  6.39D-01  8.19D-01  7.45D-01
 E= -435.471231891595     Delta-E=       -0.000000021364 Rises=F Damp=F
 DIIS: error= 1.48D-06 at cycle  11 NSaved=  11.
 NSaved=11 IEnMin=11 EnMin= -435.471231891595     IErMin=11 ErrMin= 1.48D-06
 ErrMax= 1.48D-06  0.00D+00 EMaxC= 1.00D-01 BMatC= 2.43D-09 BMatP= 7.80D-08
 IDIUse=1 WtCom= 1.00D+00 WtEn= 0.00D+00
 Coeff-Com:  0.795D-05-0.264D-04-0.188D-03-0.313D-03-0.646D-03-0.136D-02
 Coeff-Com: -0.258D-03 0.701D-02 0.752D-01 0.227D+00 0.693D+00
 Coeff:      0.795D-05-0.264D-04-0.188D-03-0.313D-03-0.646D-03-0.136D-02
 Coeff:     -0.258D-03 0.701D-02 0.752D-01 0.227D+00 0.693D+00
 Gap=     0.182 Goal=   None    Shift=    0.000
 Gap=     0.182 Goal=   None    Shift=    0.000
 RMSDP=4.05D-07 MaxDP=1.82D-05 DE=-2.14D-08 OVMax= 1.73D-05

 Cycle  12  Pass 1  IDiag  1:
 RMSU=  3.28D-07    CP:  6.88D-01  1.23D+00  8.02D-01  6.72D-01  6.02D-01
                    CP:  7.67D-01  7.39D-01  6.41D-01  8.21D-01  7.78D-01
                    CP:  8.75D-01
 E= -435.471231891985     Delta-E=       -0.000000000391 Rises=F Damp=F
 DIIS: error= 1.10D-06 at cycle  12 NSaved=  12.
 NSaved=12 IEnMin=12 EnMin= -435.471231891985     IErMin=12 ErrMin= 1.10D-06
 ErrMax= 1.10D-06  0.00D+00 EMaxC= 1.00D-01 BMatC= 9.33D-10 BMatP= 2.43D-09
 IDIUse=1 WtCom= 1.00D+00 WtEn= 0.00D+00
 Coeff-Com:  0.673D-05-0.150D-05-0.996D-04-0.219D-03-0.580D-03-0.142D-02
 Coeff-Com: -0.203D-02-0.699D-03 0.158D-01 0.731D-01 0.439D+00 0.478D+00
 Coeff:      0.673D-05-0.150D-05-0.996D-04-0.219D-03-0.580D-03-0.142D-02
 Coeff:     -0.203D-02-0.699D-03 0.158D-01 0.731D-01 0.439D+00 0.478D+00
 Gap=     0.182 Goal=   None    Shift=    0.000
 Gap=     0.182 Goal=   None    Shift=    0.000
 RMSDP=2.11D-07 MaxDP=7.25D-06 DE=-3.91D-10 OVMax= 7.76D-06

 Cycle  13  Pass 1  IDiag  1:
 RMSU=  1.25D-07    CP:  6.88D-01  1.23D+00  8.02D-01  6.72D-01  6.02D-01
                    CP:  7.67D-01  7.40D-01  6.41D-01  8.26D-01  7.89D-01
                    CP:  9.06D-01  5.98D-01
 E= -435.471231892248     Delta-E=       -0.000000000263 Rises=F Damp=F
 DIIS: error= 1.08D-07 at cycle  13 NSaved=  13.
 NSaved=13 IEnMin=13 EnMin= -435.471231892248     IErMin=13 ErrMin= 1.08D-07
 ErrMax= 1.08D-07  0.00D+00 EMaxC= 1.00D-01 BMatC= 1.76D-11 BMatP= 9.33D-10
 IDIUse=1 WtCom= 1.00D+00 WtEn= 0.00D+00
 Coeff-Com:  0.190D-05 0.165D-05-0.113D-04-0.430D-04-0.127D-03-0.316D-03
 Coeff-Com: -0.593D-03-0.103D-02-0.344D-02-0.491D-02 0.532D-01 0.115D+00
 Coeff-Com:  0.843D+00
 Coeff:      0.190D-05 0.165D-05-0.113D-04-0.430D-04-0.127D-03-0.316D-03
 Coeff:     -0.593D-03-0.103D-02-0.344D-02-0.491D-02 0.532D-01 0.115D+00
 Coeff:      0.843D+00
 Gap=     0.182 Goal=   None    Shift=    0.000
 Gap=     0.182 Goal=   None    Shift=    0.000
 RMSDP=4.96D-08 MaxDP=2.66D-06 DE=-2.63D-10 OVMax= 1.34D-06

 Cycle  14  Pass 1  IDiag  1:
 RMSU=  3.29D-08    CP:  6.88D-01  1.23D+00  8.02D-01  6.72D-01  6.02D-01
                    CP:  7.67D-01  7.40D-01  6.41D-01  8.27D-01  7.91D-01
                    CP:  9.23D-01  6.19D-01  9.88D-01
 E= -435.471231892250     Delta-E=       -0.000000000001 Rises=F Damp=F
 DIIS: error= 6.21D-08 at cycle  14 NSaved=  14.
 NSaved=14 IEnMin=14 EnMin= -435.471231892250     IErMin=14 ErrMin= 6.21D-08
 ErrMax= 6.21D-08  0.00D+00 EMaxC= 1.00D-01 BMatC= 3.66D-12 BMatP= 1.76D-11
 IDIUse=1 WtCom= 1.00D+00 WtEn= 0.00D+00
 Coeff-Com:  0.696D-06 0.609D-06-0.170D-05-0.120D-04-0.376D-04-0.881D-04
 Coeff-Com: -0.189D-03-0.446D-03-0.227D-02-0.531D-02 0.101D-01 0.370D-01
 Coeff-Com:  0.438D+00 0.523D+00
 Coeff:      0.696D-06 0.609D-06-0.170D-05-0.120D-04-0.376D-04-0.881D-04
 Coeff:     -0.189D-03-0.446D-03-0.227D-02-0.531D-02 0.101D-01 0.370D-01
 Coeff:      0.438D+00 0.523D+00
 Gap=     0.182 Goal=   None    Shift=    0.000
 Gap=     0.182 Goal=   None    Shift=    0.000
 RMSDP=1.57D-08 MaxDP=8.83D-07 DE=-1.36D-12 OVMax= 4.34D-07

 Cycle  15  Pass 1  IDiag  1:
 RMSU=  1.16D-08    CP:  6.88D-01  1.23D+00  8.02D-01  6.72D-01  6.02D-01
                    CP:  7.67D-01  7.40D-01  6.41D-01  8.27D-01  7.91D-01
                    CP:  9.21D-01  6.17D-01  1.02D+00  7.84D-01
 E= -435.471231892261     Delta-E=       -0.000000000011 Rises=F Damp=F
 DIIS: error= 1.36D-08 at cycle  15 NSaved=  15.
 NSaved=15 IEnMin=15 EnMin= -435.471231892261     IErMin=15 ErrMin= 1.36D-08
 ErrMax= 1.36D-08  0.00D+00 EMaxC= 1.00D-01 BMatC= 2.74D-13 BMatP= 3.66D-12
 IDIUse=1 WtCom= 1.00D+00 WtEn= 0.00D+00
 Coeff-Com: -0.886D-07 0.903D-07 0.113D-05 0.295D-05 0.710D-05 0.209D-04
 Coeff-Com:  0.237D-04-0.130D-04-0.439D-03-0.159D-02-0.671D-02-0.831D-02
 Coeff-Com:  0.190D-01 0.215D+00 0.783D+00
 Coeff:     -0.886D-07 0.903D-07 0.113D-05 0.295D-05 0.710D-05 0.209D-04
 Coeff:      0.237D-04-0.130D-04-0.439D-03-0.159D-02-0.671D-02-0.831D-02
 Coeff:      0.190D-01 0.215D+00 0.783D+00
 Gap=     0.182 Goal=   None    Shift=    0.000
 Gap=     0.182 Goal=   None    Shift=    0.000
 RMSDP=4.80D-09 MaxDP=2.38D-07 DE=-1.15D-11 OVMax= 1.00D-07

 SCF Done:  E(UB3LYP) =  -435.471231892     A.U. after   15 cycles
            NFock= 15  Conv=0.48D-08     -V/T= 2.0060
 <Sx>= 0.0000 <Sy>= 0.0000 <Sz>= 0.0000 <S**2>=-0.0000 S=-0.0000
 <L.S>= 0.000000000000E+00
 KE= 4.328573846647D+02 PE=-1.799207048256D+03 EE= 5.391413396518D+02
 Annihilation of the first spin contaminant:
 S**2 before annihilation    -0.0000,   after    -0.0000
 Leave Link  502 at Sat Nov  5 22:09:51 2016, MaxMem=   524288000 cpu:             777.3 elap:             111.1
 (Enter /home/ubuntu/g16/l601.exe)
 Copying SCF densities to generalized density rwf, IOpCl= 1 IROHF=0.

 **********************************************************************

            Population analysis using the SCF density.

 **********************************************************************

 Orbital symmetries:
 Alpha Orbitals:
       Occupied  (A) (A) (A) (A) (A) (A) (A) (A) (A) (A) (A) (A)
                 (A) (A) (A) (A) (A) (A) (A) (A) (A) (A) (A) (A)
                 (A) (A) (A) (A) (A) (A) (A)
       Virtual   (A) (A) (A) (A) (A) (A) (A) (A) (A) (A) (A) (A)
                 (A) (A) (A) (A) (A) (A) (A) (A) (A) (A) (A) (A)
                 (A) (A) (A) (A) (A) (A) (A) (A) (A) (A) (A) (A)
                 (A) (A) (A) (A) (A) (A) (A) (A) (A) (A) (A) (A)
                 (A) (A) (A) (A) (A) (A) (A) (A) (A) (A) (A) (A)
                 (A) (A) (A) (A) (A) (A) (A) (A) (A) (A) (A) (A)
                 (A) (A) (A) (A) (A) (A) (A) (A) (A) (A) (A) (A)
                 (A) (A) (A) (A) (A) (A) (A) (A) (A) (A) (A) (A)
                 (A) (A) (A) (A) (A) (A) (A) (A) (A) (A) (A) (A)
                 (A) (A) (A) (A) (A) (A) (A) (A) (A) (A) (A) (A)
                 (A) (A) (A) (A) (A) (A) (A) (A) (A) (A) (A) (A)
                 (A) (A) (A) (A) (A) (A) (A) (A) (A) (A) (A) (A)
                 (A) (A) (A) (A) (A) (A) (A) (A) (A) (A) (A) (A)
                 (A) (A) (A) (A) (A) (A) (A) (A) (A) (A) (A) (A)
                 (A) (A) (A) (A) (A) (A) (A) (A) (A) (A) (A) (A)
                 (A) (A) (A) (A) (A) (A) (A) (A) (A) (A) (A) (A)
                 (A) (A) (A) (A) (A) (A) (A) (A) (A) (A) (A)
 Beta  Orbitals:
       Occupied  (A) (A) (A) (A) (A) (A) (A) (A) (A) (A) (A) (A)
                 (A) (A) (A) (A) (A) (A) (A) (A) (A) (A) (A) (A)
                 (A) (A) (A) (A) (A) (A) (A)
       Virtual   (A) (A) (A) (A) (A) (A) (A) (A) (A) (A) (A) (A)
                 (A) (A) (A) (A) (A) (A) (A) (A) (A) (A) (A) (A)
                 (A) (A) (A) (A) (A) (A) (A) (A) (A) (A) (A) (A)
                 (A) (A) (A) (A) (A) (A) (A) (A) (A) (A) (A) (A)
                 (A) (A) (A) (A) (A) (A) (A) (A) (A) (A) (A) (A)
                 (A) (A) (A) (A) (A) (A) (A) (A) (A) (A) (A) (A)
                 (A) (A) (A) (A) (A) (A) (A) (A) (A) (A) (A) (A)
                 (A) (A) (A) (A) (A) (A) (A) (A) (A) (A) (A) (A)
                 (A) (A) (A) (A) (A) (A) (A) (A) (A) (A) (A) (A)
                 (A) (A) (A) (A) (A) (A) (A) (A) (A) (A) (A) (A)
                 (A) (A) (A) (A) (A) (A) (A) (A) (A) (A) (A) (A)
                 (A) (A) (A) (A) (A) (A) (A) (A) (A) (A) (A) (A)
                 (A) (A) (A) (A) (A) (A) (A) (A) (A) (A) (A) (A)
                 (A) (A) (A) (A) (A) (A) (A) (A) (A) (A) (A) (A)
                 (A) (A) (A) (A) (A) (A) (A) (A) (A) (A) (A) (A)
                 (A) (A) (A) (A) (A) (A) (A) (A) (A) (A) (A) (A)
                 (A) (A) (A) (A) (A) (A) (A) (A) (A) (A) (A)
 The electronic state is 1-A.
     Natural Orbital Coefficients:
                           1         2         3         4         5
     Eigenvalues --     2.00000   2.00000   2.00000   2.00000   2.00000
   1 1   C  1S         -0.03369   0.08703  -0.12932   0.01416   0.07990
   2        2S          0.06200  -0.08070   0.16063   0.09205  -0.02964
   3        3S          0.17275  -0.14253   0.30315   0.18278  -0.16661
   4        4S          0.06940  -0.00356   0.04433   0.06098  -0.20410
   5        5PX        -0.00800   0.02325  -0.04250  -0.05760  -0.06669
   6        5PY         0.03277  -0.05398   0.22056  -0.02711  -0.05255
   7        5PZ        -0.00849   0.01284  -0.00682   0.01814  -0.01683
   8        6PX        -0.00049   0.01644  -0.04972   0.00451  -0.01950
   9        6PY        -0.10048  -0.07141   0.10374   0.03951  -0.00645
  10        6PZ        -0.00437   0.01135  -0.00101   0.00945  -0.01030
  11        7PX         0.00886   0.00749  -0.02425  -0.01745   0.04118
  12        7PY        -0.05291   0.04982  -0.14638   0.01440  -0.07309
  13        7PZ        -0.00020  -0.00342  -0.00147   0.00042  -0.00121
  14        8D 0       -0.00012   0.00273  -0.00641  -0.00369  -0.00140
  15        8D+1        0.00035   0.00033   0.00078  -0.00074   0.00024
  16        8D-1        0.00007   0.00005   0.00034  -0.00044  -0.00077
  17        8D+2        0.00055   0.00167  -0.00173  -0.00216   0.00718
  18        8D-2        0.00383   0.00061  -0.00275   0.00597  -0.00327
  19        9D 0       -0.00548   0.00056  -0.00455   0.00084   0.00440
  20        9D+1        0.00017  -0.00143  -0.00037  -0.00018   0.00022
  21        9D-1       -0.00014   0.00217   0.00082  -0.00031  -0.00016
  22        9D+2       -0.01440   0.00456  -0.00150  -0.02571   0.02131
  23        9D-2        0.02170   0.00760  -0.00082  -0.01134   0.01058
  24 2   C  1S         -0.00161   0.01013  -0.02691   0.06130  -0.05161
  25        2S         -0.00544  -0.04538   0.11258   0.10265   0.05022
  26        3S         -0.00245  -0.05454   0.15603   0.17756   0.08536
  27        4S         -0.05325   0.02569  -0.09987  -0.08299   0.20366
  28        5PX        -0.04079   0.02342  -0.18310  -0.00576  -0.03373
  29        5PY         0.09827  -0.00808  -0.02098   0.06653   0.02595
  30        5PZ        -0.00724  -0.00059  -0.01470   0.01867  -0.00092
  31        6PX        -0.18575   0.00645  -0.10952  -0.11124   0.02611
  32        6PY        -0.05918  -0.00504  -0.00970   0.00873  -0.00092
  33        6PZ        -0.00321  -0.00600  -0.00933   0.01038   0.00025
  34        7PX        -0.05689   0.03346  -0.09340   0.02290  -0.08681
  35        7PY        -0.04753   0.01084  -0.03713  -0.00060  -0.00164
  36        7PZ        -0.00063   0.00631   0.00133   0.00171  -0.00047
  37        8D 0       -0.00160   0.00260  -0.00617  -0.00212  -0.00306
  38        8D+1       -0.00018   0.00294   0.00147  -0.00001  -0.00175
  39        8D-1       -0.00042   0.00064  -0.00037   0.00091  -0.00080
  40        8D+2        0.00126   0.00178   0.00040  -0.00404   0.00379
  41        8D-2       -0.01362  -0.00331  -0.00073   0.00127   0.00161
  42        9D 0        0.00399   0.00092  -0.00466   0.00416  -0.00780
  43        9D+1       -0.00028   0.00406   0.00198  -0.00124  -0.00040
  44        9D-1       -0.00030   0.00112   0.00025  -0.00000   0.00009
  45        9D+2        0.01014  -0.00338   0.00706   0.00994   0.01780
  46        9D-2       -0.01939  -0.00102  -0.00598  -0.01944   0.02514
  47 3   C  1S         -0.09647   0.05493  -0.20204   0.74695   0.19817
  48        2S          0.03816  -0.01533   0.05595   0.00086   0.18046
  49        3S          0.38364   0.05658  -0.10793  -0.10147   0.11245
  50        4S          0.29654  -0.00364   0.25067   0.07365  -0.31866
  51        5PX         0.00298  -0.04012   0.21163   0.08613  -0.05190
  52        5PY         0.34577   0.04310   0.01489   0.03591  -0.00920
  53        5PZ        -0.00098  -0.04696  -0.03069   0.00919   0.02226
  54        6PX        -0.21257  -0.01393  -0.04914  -0.10418  -0.03241
  55        6PY         0.21954   0.03876  -0.15739  -0.04700   0.09174
  56        6PZ        -0.00112  -0.00595  -0.00839   0.00167   0.01168
  57        7PX        -0.09064   0.01826  -0.07987   0.02097  -0.05237
  58        7PY         0.06718  -0.00881   0.04626  -0.01156  -0.01508
  59        7PZ         0.00055  -0.00783  -0.00240  -0.00117   0.00170
  60        8D 0       -0.00115   0.00073  -0.00181  -0.00135  -0.00531
  61        8D+1       -0.00060   0.00278   0.00028   0.00099  -0.00054
  62        8D-1        0.00026  -0.00593  -0.00255  -0.00021   0.00147
  63        8D+2       -0.00175  -0.00292   0.01018   0.00633  -0.00107
  64        8D-2       -0.01008  -0.00250  -0.00027   0.00229   0.00078
  65        9D 0       -0.00150   0.00034   0.00237   0.00359   0.01296
  66        9D+1       -0.00091   0.01409   0.00516  -0.00072  -0.00101
  67        9D-1       -0.00041   0.01027   0.00376  -0.00046  -0.00086
  68        9D+2       -0.07854   0.00006  -0.01597  -0.01659  -0.01768
  69        9D-2        0.02448   0.00248  -0.00097  -0.00834  -0.02709
  70 4   C  1S         -0.00634  -0.00650   0.01652  -0.16227   0.02951
  71        2S          0.00592  -0.00865   0.04542  -0.03398   0.09297
  72        3S         -0.09042   0.01552  -0.04394  -0.05141  -0.19017
  73        4S          0.00681   0.01132  -0.07358  -0.03668   0.38458
  74        5PX         0.02555   0.00385  -0.00240  -0.01608  -0.00001
  75        5PY        -0.32804  -0.05688   0.08542   0.00758  -0.06760
  76        5PZ         0.00748  -0.13505  -0.05346  -0.00663   0.02919
  77        6PX         0.08932   0.01634  -0.00397   0.00812  -0.06324
  78        6PY         0.19635   0.03140  -0.11453  -0.03306  -0.04143
  79        6PZ         0.00263  -0.05055  -0.02229  -0.00362   0.01675
  80        7PX         0.04311   0.01575  -0.04730  -0.03952   0.02408
  81        7PY         0.24694  -0.03766   0.26655  -0.01323   0.03316
  82        7PZ        -0.00042   0.01452   0.00484  -0.00034   0.00137
  83        8D 0       -0.00036   0.00161  -0.00691   0.00211  -0.00842
  84        8D+1       -0.00159   0.01515   0.00387   0.00095  -0.00013
  85        8D-1        0.00027  -0.00085   0.00038  -0.00114  -0.00068
  86        8D+2       -0.01001  -0.00261   0.00837   0.00639  -0.00638
  87        8D-2       -0.02140  -0.00008  -0.00586  -0.00680   0.00679
  88        9D 0        0.00590   0.00137  -0.00360  -0.00156  -0.02486
  89        9D+1        0.00282  -0.03689  -0.01221  -0.00155   0.00241
  90        9D-1       -0.00013   0.00504   0.00331  -0.00368  -0.00045
  91        9D+2        0.08321   0.01862  -0.03087   0.05615   0.05128
  92        9D-2        0.18188   0.03017  -0.10007  -0.01198   0.00656
  93 5   N  1S         -0.05197   0.04064  -0.08145   0.31827   0.06617
  94        2S          0.00236  -0.02477   0.07151   0.01349  -0.05387
  95        3S          0.00477  -0.02010   0.05551  -0.04689  -0.11259
  96        4S          0.03585   0.01468  -0.05722  -0.06153  -0.12239
  97        5PX        -0.04315  -0.01426   0.06457   0.01309   0.05902
  98        5PY         0.11992  -0.00187  -0.06710   0.09523  -0.12395
  99        5PZ         0.04026  -0.45318  -0.13089  -0.02159   0.01082
 100        6PX        -0.01098  -0.01163   0.04319   0.00880   0.00948
 101        6PY         0.09458   0.01175  -0.08497   0.01290  -0.00376
 102        6PZ         0.02015  -0.22944  -0.06682  -0.01071   0.00619
 103        7PX        -0.00978  -0.00614   0.02771  -0.00169   0.01778
 104        7PY         0.00222   0.01272  -0.09217  -0.00018   0.01541
 105        7PZ         0.00290  -0.03538  -0.01052  -0.00142   0.00066
 106        8D 0       -0.00112   0.00070  -0.00247   0.00069   0.00186
 107        8D+1       -0.00105   0.01059   0.00270  -0.00017   0.00107
 108        8D-1        0.00041   0.00292   0.00389  -0.00693   0.00017
 109        8D+2       -0.00823   0.00074  -0.00702   0.00139   0.00755
 110        8D-2       -0.01078  -0.00196   0.00782  -0.00260  -0.00044
 111        9D 0       -0.00367  -0.00129   0.00308   0.00146   0.00127
 112        9D+1        0.00245  -0.03011  -0.00974  -0.00148   0.00236
 113        9D-1       -0.00013   0.00338   0.00159  -0.00107  -0.00011
 114        9D+2        0.00192  -0.00168   0.00317   0.00893   0.01739
 115        9D-2       -0.01792  -0.00366   0.00122   0.01420  -0.02422
 116 6   O  1S         -0.04966   0.01918   0.04206  -0.15196  -0.09105
 117        2S          0.03907   0.00148  -0.03000  -0.02795   0.03765
 118        3S          0.08823   0.00509  -0.06205  -0.00888   0.07473
 119        4S          0.02701   0.00389  -0.04334   0.02502   0.04506
 120        5PX        -0.03601  -0.00877   0.08118  -0.09368   0.02994
 121        5PY        -0.07384  -0.01023   0.05425  -0.01078  -0.02443
 122        5PZ         0.01913  -0.27177  -0.10509   0.05542  -0.00421
 123        6PX        -0.01202  -0.00470   0.03827  -0.04904   0.02756
 124        6PY        -0.02448  -0.00321   0.01653   0.00302  -0.00282
 125        6PZ         0.01068  -0.16090  -0.06448   0.03855  -0.00338
 126        7PX         0.00395   0.00121  -0.00271  -0.00535  -0.00161
 127        7PY        -0.00845  -0.00380   0.01140   0.00880   0.00213
 128        7PZ        -0.00031  -0.00627  -0.00580   0.01016  -0.00149
 129        8D 0        0.00191   0.00051  -0.00199   0.00188  -0.00041
 130        8D+1        0.00085  -0.01039  -0.00350   0.00065   0.00014
 131        8D-1        0.00131  -0.01560  -0.00508   0.00077   0.00009
 132        8D+2       -0.00025   0.00007   0.00117  -0.00131   0.00303
 133        8D-2       -0.00315  -0.00081   0.00484  -0.00388   0.00147
 134        9D 0        0.00024   0.00027   0.00003   0.00023  -0.00153
 135        9D+1        0.00072  -0.00972  -0.00358   0.00151  -0.00004
 136        9D-1        0.00137  -0.01758  -0.00590   0.00111   0.00018
 137        9D+2       -0.00480  -0.00022   0.00076  -0.00227   0.00442
 138        9D-2        0.00239  -0.00006  -0.00034   0.00035   0.00364
 139 7   O  1S          0.09722  -0.02565   0.00793  -0.11273   0.06425
 140        2S         -0.07068  -0.02005   0.09735   0.04383  -0.02394
 141        3S         -0.14120  -0.02736   0.14896   0.06048  -0.00164
 142        4S         -0.08193  -0.01840   0.10405   0.02261   0.02750
 143        5PX         0.12604  -0.00986   0.05990   0.03768  -0.12276
 144        5PY        -0.12268  -0.01023   0.10847  -0.02236   0.08099
 145        5PZ         0.02658  -0.20251  -0.02777  -0.07480  -0.00057
 146        6PX         0.07422  -0.00560   0.04700   0.02336  -0.06111
 147        6PY        -0.03701  -0.00245   0.04313  -0.01604   0.03406
 148        6PZ         0.01556  -0.11442  -0.01208  -0.04951  -0.00064
 149        7PX         0.00523  -0.00112   0.00627   0.00695  -0.02181
 150        7PY         0.00319  -0.00071  -0.00002   0.00096  -0.01766
 151        7PZ         0.00071   0.00409   0.00618  -0.00983  -0.00073
 152        8D 0       -0.00354   0.00007   0.00086  -0.00139   0.00362
 153        8D+1        0.00075  -0.00695  -0.00164  -0.00115   0.00013
 154        8D-1       -0.00162   0.01534   0.00369   0.00228  -0.00014
 155        8D+2       -0.00217  -0.00027   0.00347  -0.00050   0.00290
 156        8D-2       -0.00466   0.00083  -0.00157  -0.00311   0.00667
 157        9D 0        0.00140   0.00058  -0.00216  -0.00094   0.00113
 158        9D+1        0.00070  -0.00528  -0.00067  -0.00188   0.00005
 159        9D-1       -0.00167   0.01677   0.00386   0.00287  -0.00030
 160        9D+2        0.00699   0.00063   0.00052  -0.00052   0.00265
 161        9D-2       -0.00193   0.00068  -0.00417  -0.00229  -0.00080
 162 8   C  1S         -0.00602  -0.02486   0.02221   0.18995  -0.01702
 163        2S         -0.04252  -0.00110   0.04462  -0.07866   0.24896
 164        3S         -0.34528   0.00115   0.08006  -0.12127   0.21405
 165        4S         -0.44623  -0.05834  -0.09640   0.19265  -0.49967
 166        5PX        -0.01449   0.02361  -0.08451  -0.00594   0.10638
 167        5PY         0.28794   0.04887  -0.03326  -0.02062   0.09492
 168        5PZ         0.00149  -0.04344  -0.02082  -0.00485   0.00632
 169        6PX         0.19945   0.05582  -0.05235  -0.16238   0.01002
 170        6PY         0.20499   0.04467  -0.14333   0.03500  -0.05216
 171        6PZ        -0.00055  -0.00729  -0.00670   0.00053   0.00155
 172        7PX         0.06127  -0.04210   0.13553   0.03902  -0.03133
 173        7PY         0.03655  -0.01195   0.04061  -0.01968   0.07724
 174        7PZ         0.00023  -0.00794  -0.00316   0.00047   0.00061
 175        8D 0       -0.00082   0.00104  -0.00492   0.00047  -0.00595
 176        8D+1       -0.00058   0.00369   0.00096   0.00072  -0.00159
 177        8D-1       -0.00017   0.00531   0.00230   0.00010  -0.00113
 178        8D+2       -0.00911  -0.00099   0.00094   0.00113   0.00314
 179        8D-2       -0.01854   0.00119  -0.00813  -0.00019  -0.00328
 180        9D 0       -0.01548   0.00028  -0.00339   0.00058   0.00643
 181        9D+1       -0.00069   0.01191   0.00343   0.00166  -0.00080
 182        9D-1        0.00032  -0.01169  -0.00328  -0.00140   0.00074
 183        9D+2        0.14144   0.02706  -0.02646  -0.01732   0.00469
 184        9D-2        0.07976   0.01127   0.00686   0.00980   0.11863
 185 9   C  1S          0.05436  -0.03711   0.03780   0.01263   0.04861
 186        2S          0.00510  -0.03595   0.10468   0.00251   0.09019
 187        3S         -0.16594  -0.03033   0.06930   0.04090   0.14590
 188        4S          0.12154   0.00854   0.03531  -0.17083   0.46297
 189        5PX         0.06245  -0.03243   0.09413   0.05172  -0.20759
 190        5PY        -0.01169   0.08913  -0.23728  -0.03170   0.04088
 191        5PZ        -0.00523  -0.00017  -0.00818   0.00720  -0.01519
 192        6PX         0.16815   0.03977   0.02166  -0.12340  -0.00606
 193        6PY        -0.08841  -0.05490   0.08632   0.01702  -0.06222
 194        6PZ        -0.00215  -0.00951  -0.00533   0.00192  -0.00864
 195        7PX        -0.00440  -0.04557   0.10766   0.03086  -0.05039
 196        7PY        -0.01578   0.01871  -0.05288   0.01053  -0.06728
 197        7PZ        -0.00018   0.00467   0.00174  -0.00032  -0.00157
 198        8D 0       -0.00073   0.00170  -0.00405  -0.00063  -0.00499
 199        8D+1       -0.00021   0.00268   0.00101   0.00054  -0.00060
 200        8D-1        0.00047  -0.00061   0.00045  -0.00092   0.00084
 201        8D+2       -0.00613   0.00462  -0.00969  -0.00916   0.01303
 202        8D-2       -0.01652   0.00190  -0.01036   0.00170  -0.00192
 203        9D 0        0.00760  -0.00132   0.00921  -0.00174  -0.00521
 204        9D+1        0.00010   0.00185   0.00060   0.00114  -0.00041
 205        9D-1        0.00016   0.00122   0.00034  -0.00008   0.00006
 206        9D+2       -0.02240  -0.03033   0.05454   0.03961  -0.03929
 207        9D-2        0.03790  -0.01138   0.01917   0.02148   0.03088
 208 10  H  1S         -0.21275  -0.02239  -0.07142  -0.07447   0.12378
 209        2S         -0.28158  -0.00593  -0.21408  -0.09097   0.11016
 210        3S          0.00188   0.00147  -0.00355  -0.00827  -0.00133
 211        4PX        -0.00919  -0.00225   0.00257  -0.00131   0.00488
 212        4PY        -0.00365  -0.00056  -0.00201  -0.00588   0.00934
 213        4PZ        -0.00005  -0.00174  -0.00112   0.00039   0.00077
 214        5PX        -0.03888   0.00238  -0.04220  -0.01261   0.00565
 215        5PY        -0.05007  -0.00203  -0.03963  -0.01473   0.01387
 216        5PZ        -0.00053   0.00661   0.00201   0.00037  -0.00030
 217 11  H  1S          0.21803   0.02254   0.05303  -0.05631   0.15987
 218        2S          0.42922   0.03992   0.10839  -0.09415   0.22118
 219        3S         -0.00450  -0.00354   0.00443   0.01147  -0.01740
 220        4PX         0.00582   0.00144  -0.00090  -0.00312   0.00978
 221        4PY        -0.00284  -0.00044  -0.00282   0.00470  -0.01057
 222        4PZ         0.00003  -0.00153  -0.00065  -0.00028   0.00011
 223        5PX         0.04906   0.00235   0.01412  -0.00881  -0.00446
 224        5PY        -0.08333  -0.00678  -0.02160   0.02022  -0.04485
 225        5PZ        -0.00078   0.00680   0.00217   0.00007  -0.00090
 226 12  H  1S          0.00260   0.02273  -0.06117   0.01133  -0.02239
 227        2S         -0.09814   0.04311  -0.16128   0.05889  -0.11536
 228        3S         -0.00171   0.00743  -0.01695  -0.01041   0.02582
 229        4PX        -0.00021  -0.00157   0.00335   0.00155  -0.00503
 230        4PY        -0.00289   0.00101  -0.00343  -0.00089   0.00081
 231        4PZ        -0.00021   0.00009  -0.00022   0.00024  -0.00056
 232        5PX         0.00914   0.00120   0.00775  -0.01730   0.02430
 233        5PY         0.02461  -0.01402   0.04990  -0.00807   0.01416
 234        5PZ        -0.00015   0.00123   0.00054  -0.00009  -0.00025
                           6         7         8         9        10
     Eigenvalues --     2.00000   2.00000   2.00000   2.00000   2.00000
   1 1   C  1S          0.32769   0.18968  -0.15503   0.01372  -0.02106
   2        2S         -0.17740  -0.05953   0.01647  -0.02387  -0.14045
   3        3S         -0.24163  -0.09411   0.10003  -0.03335  -0.22738
   4        4S         -0.06378  -0.00910   0.02263   0.09862   0.00703
   5        5PX         0.09280   0.05007  -0.01846   0.02182  -0.12034
   6        5PY         0.20067  -0.00716   0.02436  -0.01054  -0.11201
   7        5PZ        -0.03299  -0.02315   0.03745   0.02580   0.11491
   8        6PX        -0.02035   0.00868  -0.05021   0.01102  -0.03938
   9        6PY        -0.08291  -0.00545  -0.05224  -0.04652  -0.00766
  10        6PZ        -0.01569  -0.01149   0.01873   0.01486   0.04869
  11        7PX         0.01298   0.00285  -0.01250  -0.01400  -0.01840
  12        7PY        -0.12945  -0.04271   0.11896   0.02979   0.19478
  13        7PZ        -0.00051  -0.00066   0.00093   0.00106   0.00359
  14        8D 0        0.00649   0.00299  -0.00128   0.00106   0.00047
  15        8D+1        0.00168   0.00103  -0.00165  -0.00075  -0.00648
  16        8D-1        0.00035   0.00002  -0.00111   0.00120  -0.00222
  17        8D+2        0.00666   0.00208  -0.00058  -0.00147   0.01072
  18        8D-2       -0.00647  -0.00074   0.00254   0.00261   0.01223
  19        9D 0       -0.00072   0.00059  -0.00168  -0.00365   0.00304
  20        9D+1        0.00039   0.00020  -0.00032  -0.00033  -0.00058
  21        9D-1        0.00006   0.00031  -0.00076  -0.00064   0.00032
  22        9D+2        0.04376   0.01376   0.00692  -0.00949   0.00317
  23        9D-2        0.02466  -0.00761   0.00711   0.00014  -0.01191
  24 2   C  1S          0.01083   0.56032  -0.10194   0.29455  -0.28126
  25        2S         -0.10245   0.00856   0.02262  -0.04455   0.10219
  26        3S         -0.05101  -0.03646   0.10187  -0.15116   0.30259
  27        4S          0.10746   0.00779  -0.01504  -0.14181  -0.02031
  28        5PX        -0.23381  -0.01863  -0.03295   0.02279  -0.14479
  29        5PY        -0.18424  -0.06154   0.00673   0.02529   0.05678
  30        5PZ        -0.03479  -0.02007   0.04099   0.00704   0.13325
  31        6PX        -0.04263   0.05722  -0.12906   0.01556  -0.11520
  32        6PY         0.00696   0.00207  -0.05852   0.02921   0.03697
  33        6PZ        -0.01702  -0.01042   0.02254   0.00454   0.06334
  34        7PX        -0.11951  -0.03909   0.11199   0.03907   0.17802
  35        7PY        -0.02413  -0.01965   0.05253  -0.00778   0.07187
  36        7PZ        -0.00193  -0.00120   0.00350   0.00137   0.00103
  37        8D 0        0.00454   0.00064  -0.00121   0.00074  -0.00082
  38        8D+1        0.00050  -0.00005  -0.00037   0.00145  -0.00360
  39        8D-1       -0.00176  -0.00118   0.00185   0.00129   0.00595
  40        8D+2        0.01080   0.00599  -0.00020  -0.00132   0.00426
  41        8D-2       -0.01176  -0.00123   0.00113  -0.00147  -0.00648
  42        9D 0       -0.00785   0.00404   0.00028   0.00531   0.00065
  43        9D+1        0.00133   0.00124  -0.00249  -0.00208  -0.00137
  44        9D-1       -0.00028   0.00002   0.00003  -0.00040   0.00153
  45        9D+2       -0.01492  -0.01205   0.02651  -0.01347   0.01093
  46        9D-2       -0.01023  -0.00088  -0.00734  -0.01399   0.00819
  47 3   C  1S          0.21345  -0.28449   0.02744   0.17259  -0.06842
  48        2S          0.03268   0.00158   0.01699  -0.02891   0.05814
  49        3S         -0.02328   0.12185   0.09330  -0.07891   0.15126
  50        4S         -0.06125  -0.03140   0.01542   0.24030   0.12405
  51        5PX         0.15568   0.01051   0.03741  -0.02660   0.16297
  52        5PY         0.02145   0.01651  -0.02541   0.02110   0.05508
  53        5PZ        -0.02626  -0.01081   0.02490  -0.01300   0.12240
  54        6PX        -0.02919   0.01409  -0.13798   0.03428  -0.16660
  55        6PY        -0.14483   0.01290   0.12260  -0.07005   0.05160
  56        6PZ        -0.01094  -0.00215   0.00699  -0.01387   0.05770
  57        7PX        -0.10352  -0.03248   0.10007   0.01620   0.13141
  58        7PY         0.01444   0.01469  -0.05126   0.02758  -0.06935
  59        7PZ         0.00094   0.00089  -0.00209  -0.00308   0.00580
  60        8D 0        0.00297   0.00094  -0.00113   0.00121  -0.00325
  61        8D+1       -0.00173  -0.00094   0.00209   0.00041   0.00556
  62        8D-1       -0.00068  -0.00023  -0.00002  -0.00082   0.00608
  63        8D+2        0.00479  -0.00162   0.00282  -0.00784   0.01120
  64        8D-2       -0.00644  -0.00403   0.00250   0.00624   0.00076
  65        9D 0        0.01309  -0.00142   0.00242  -0.00770   0.00387
  66        9D+1        0.00019   0.00114  -0.00173  -0.00262  -0.00130
  67        9D-1       -0.00003   0.00055  -0.00109  -0.00114  -0.00153
  68        9D+2        0.01216   0.01628  -0.06911   0.03676  -0.05281
  69        9D-2       -0.03891  -0.01852  -0.02798   0.00924  -0.02567
  70 4   C  1S          0.00705  -0.09919  -0.07419   0.27800   0.11388
  71        2S         -0.06127   0.00001  -0.04839   0.01087  -0.00017
  72        3S          0.04225   0.09757  -0.01391  -0.03121  -0.06999
  73        4S          0.18012   0.16055  -0.09806  -0.18564  -0.12836
  74        5PX        -0.00558   0.01302   0.00812   0.13343  -0.04973
  75        5PY        -0.00839  -0.02069  -0.00060   0.06140  -0.02929
  76        5PZ        -0.00659  -0.00213  -0.00642  -0.01554   0.10172
  77        6PX         0.03742   0.02451   0.04751   0.05057  -0.00021
  78        6PY        -0.03274   0.06882   0.28453  -0.11595   0.14645
  79        6PZ        -0.00569  -0.00029  -0.00314  -0.01081   0.04936
  80        7PX         0.04018   0.01536  -0.04485   0.02847  -0.07497
  81        7PY         0.21832   0.06719  -0.16294   0.06441  -0.18439
  82        7PZ        -0.00087   0.00078  -0.00055  -0.00227  -0.00178
  83        8D 0        0.00045   0.00201   0.00184   0.00206  -0.00163
  84        8D+1       -0.00346  -0.00088   0.00192  -0.00015   0.00474
  85        8D-1        0.00130   0.00064  -0.00245   0.00016  -0.00239
  86        8D+2        0.00005  -0.00413   0.00404  -0.01351   0.01159
  87        8D-2       -0.00460  -0.00174   0.00104   0.00603  -0.01289
  88        9D 0       -0.00024  -0.00218   0.00441   0.00974  -0.00415
  89        9D+1        0.00276   0.00004  -0.00205  -0.00051   0.01044
  90        9D-1        0.00316   0.00266  -0.00713  -0.00490  -0.00080
  91        9D+2       -0.01092   0.02260   0.00788   0.00337   0.08204
  92        9D-2       -0.08727   0.00310   0.07137  -0.06246   0.01573
  93 5   N  1S          0.17947   0.24200  -0.01769  -0.10729  -0.07306
  94        2S         -0.02309  -0.04771   0.03919   0.00884  -0.03750
  95        3S         -0.01784  -0.08925   0.02665   0.06105  -0.08551
  96        4S         -0.04444  -0.07658  -0.00551   0.18907  -0.12069
  97        5PX         0.00031  -0.02754  -0.05823  -0.15547   0.09417
  98        5PY        -0.16885   0.00089  -0.20858  -0.05427   0.03455
  99        5PZ         0.06951   0.01082  -0.03802   0.00762  -0.00972
 100        6PX        -0.00567  -0.01208   0.00597  -0.08383   0.03438
 101        6PY        -0.08092  -0.00408   0.04736  -0.06218  -0.03436
 102        6PZ         0.03381   0.00525  -0.01976   0.00321  -0.00039
 103        7PX         0.00123  -0.00783   0.00695  -0.02771   0.02454
 104        7PY        -0.07952  -0.01213   0.04146  -0.04251  -0.00729
 105        7PZ         0.00480   0.00058  -0.00286   0.00094   0.00019
 106        8D 0        0.00012   0.00061  -0.00245  -0.00141   0.00261
 107        8D+1       -0.00211   0.00013  -0.00030  -0.00210   0.00442
 108        8D-1        0.00698   0.00606  -0.01374  -0.01188   0.00264
 109        8D+2       -0.00598   0.00663  -0.00288  -0.01061   0.00586
 110        8D-2        0.01119  -0.00142   0.02487   0.00915  -0.00100
 111        9D 0        0.00196   0.00302   0.00173  -0.00904  -0.00004
 112        9D+1        0.00280   0.00036  -0.00203  -0.00078   0.00678
 113        9D-1        0.00100   0.00129  -0.00247  -0.00247   0.00022
 114        9D+2       -0.01529   0.00764  -0.01056  -0.00937   0.00492
 115        9D-2       -0.02098  -0.00551  -0.04653   0.01098   0.00488
 116 6   O  1S          0.04224  -0.06975  -0.02190   0.38729   0.29823
 117        2S          0.05147   0.01916   0.29108  -0.11465  -0.02053
 118        3S          0.02907   0.04220   0.35237  -0.22718  -0.02568
 119        4S         -0.03504   0.02118   0.07128  -0.15291   0.04135
 120        5PX         0.11203  -0.07551   0.06335   0.12910  -0.12794
 121        5PY         0.04443   0.00811   0.06698   0.15241  -0.00345
 122        5PZ        -0.02394  -0.05130   0.10875   0.12213  -0.05148
 123        6PX         0.05418  -0.04058   0.03670   0.05518  -0.08225
 124        6PY         0.01230   0.01485   0.05124   0.04461   0.01051
 125        6PZ        -0.01977  -0.03531   0.07556   0.08247  -0.03350
 126        7PX         0.00677  -0.00516   0.00638   0.00438  -0.01584
 127        7PY         0.00327   0.00741   0.00373  -0.01891   0.01995
 128        7PZ        -0.00906  -0.00888   0.01998   0.01863  -0.00675
 129        8D 0       -0.00208   0.00086  -0.00353  -0.00375   0.00215
 130        8D+1        0.00041  -0.00069   0.00124   0.00202  -0.00069
 131        8D-1        0.00098  -0.00088   0.00150   0.00282  -0.00152
 132        8D+2        0.00144  -0.00152  -0.00200  -0.00399   0.00016
 133        8D-2        0.00583  -0.00245   0.00841   0.00475  -0.00385
 134        9D 0        0.00015   0.00027  -0.00090   0.00254   0.00087
 135        9D+1       -0.00037  -0.00138   0.00294   0.00348  -0.00150
 136        9D-1        0.00072  -0.00124   0.00222   0.00360  -0.00112
 137        9D+2        0.00114  -0.00186  -0.00379   0.00105  -0.00370
 138        9D-2       -0.00175   0.00015   0.00406  -0.00297  -0.00207
 139 7   O  1S         -0.06624   0.10213   0.24673  -0.32309  -0.07064
 140        2S         -0.01673   0.04404  -0.19245  -0.04212   0.13208
 141        3S          0.01473   0.06093  -0.26277  -0.03780   0.19100
 142        4S          0.06559   0.03935  -0.05945  -0.04707   0.09667
 143        5PX        -0.01638  -0.06718   0.00018   0.10891  -0.00729
 144        5PY         0.12914   0.01820   0.04340   0.00544   0.10654
 145        5PZ         0.10380   0.06198  -0.14807  -0.10297   0.00526
 146        6PX         0.00161  -0.03339   0.00097   0.07293   0.00808
 147        6PY         0.05667   0.00260   0.04446   0.01116   0.04070
 148        6PZ         0.06674   0.04132  -0.09818  -0.07005   0.00501
 149        7PX        -0.00022  -0.00126   0.00092   0.01776   0.00219
 150        7PY        -0.00040  -0.00318   0.00702   0.01829  -0.00718
 151        7PZ         0.01076   0.00874  -0.01963  -0.01664   0.00258
 152        8D 0        0.00379   0.00106   0.00161  -0.00078   0.00151
 153        8D+1        0.00190   0.00087  -0.00230  -0.00128   0.00022
 154        8D-1       -0.00408  -0.00176   0.00451   0.00229   0.00027
 155        8D+2        0.00435  -0.00052   0.00128  -0.00088   0.00358
 156        8D-2        0.00504   0.00255   0.00438   0.00008  -0.00078
 157        9D 0       -0.00055   0.00009   0.00007   0.00101  -0.00134
 158        9D+1        0.00267   0.00156  -0.00376  -0.00249  -0.00012
 159        9D-1       -0.00478  -0.00218   0.00562   0.00317  -0.00047
 160        9D+2        0.00114  -0.00015   0.00235   0.00055   0.00081
 161        9D-2        0.00039   0.00034   0.00319  -0.00137  -0.00370
 162 8   C  1S         -0.12198   0.55762   0.09867  -0.05169   0.09322
 163        2S         -0.02610   0.00867  -0.09011   0.07379  -0.07954
 164        3S          0.18214  -0.03175  -0.19468   0.18822  -0.09054
 165        4S         -0.45721  -0.17692   0.29280  -0.01108   0.25472
 166        5PX        -0.08132  -0.00618   0.00458  -0.11366   0.03210
 167        5PY         0.08894   0.00500  -0.04592  -0.00649   0.01071
 168        5PZ        -0.01229  -0.00601  -0.00751   0.00486   0.07451
 169        6PX         0.19186   0.07086   0.11503  -0.00592  -0.03529
 170        6PY        -0.09341   0.03329   0.13587  -0.11094   0.11874
 171        6PZ        -0.00968  -0.00477   0.00136   0.00719   0.02812
 172        7PX         0.02730   0.02767  -0.05710  -0.00007  -0.10545
 173        7PY         0.06271   0.04385  -0.06500  -0.03402  -0.08658
 174        7PZ        -0.00081  -0.00086   0.00080   0.00219   0.00158
 175        8D 0        0.00184   0.00121   0.00205  -0.00244   0.00141
 176        8D+1       -0.00126  -0.00095   0.00124   0.00207   0.00163
 177        8D-1        0.00068   0.00031  -0.00011   0.00043  -0.00523
 178        8D+2       -0.00369  -0.00277   0.00133  -0.00638   0.00136
 179        8D-2       -0.00783   0.00116   0.00030   0.00261   0.00544
 180        9D 0        0.00058   0.00774  -0.00816  -0.00505   0.00410
 181        9D+1       -0.00240  -0.00147   0.00288   0.00295  -0.00305
 182        9D-1        0.00181   0.00075  -0.00272  -0.00147   0.00143
 183        9D+2        0.04698   0.02673   0.04493   0.02737   0.01114
 184        9D-2       -0.01256  -0.02411  -0.07241   0.03002  -0.00690
 185 9   C  1S         -0.11643   0.32993   0.32486   0.31344   0.24202
 186        2S         -0.10075  -0.04681   0.02559   0.02782  -0.06706
 187        3S         -0.07093  -0.09453  -0.10507  -0.10345  -0.06554
 188        4S          0.32783   0.08121  -0.21432  -0.12396  -0.21899
 189        5PX         0.04007  -0.01391   0.05795   0.08836  -0.03727
 190        5PY        -0.06387   0.02191  -0.01786   0.08534   0.12615
 191        5PZ        -0.02342  -0.01689   0.01416   0.02864   0.07940
 192        6PX         0.27152   0.06371   0.07235   0.05682  -0.03969
 193        6PY        -0.01449   0.01455  -0.00254  -0.03940  -0.02586
 194        6PZ        -0.00893  -0.00736   0.00329   0.01341   0.03870
 195        7PX         0.01242   0.00869  -0.02755  -0.01220  -0.08444
 196        7PY        -0.06312  -0.03204   0.06488   0.02673   0.08596
 197        7PZ        -0.00008  -0.00019  -0.00061   0.00098  -0.00033
 198        8D 0        0.00637   0.00269   0.00049  -0.00181   0.00300
 199        8D+1        0.00014  -0.00002   0.00098   0.00017  -0.00237
 200        8D-1        0.00173   0.00121  -0.00193  -0.00136  -0.00613
 201        8D+2        0.00518   0.00327  -0.00642   0.00021  -0.00248
 202        8D-2       -0.00896  -0.00024   0.00291   0.00373   0.01285
 203        9D 0        0.00804   0.00068   0.00507   0.00387  -0.00235
 204        9D+1       -0.00072  -0.00087   0.00208   0.00198  -0.00271
 205        9D-1        0.00041   0.00010   0.00004   0.00025  -0.00166
 206        9D+2       -0.03723  -0.01137  -0.00145  -0.00674  -0.01313
 207        9D-2       -0.03627  -0.01882  -0.02378  -0.01939  -0.01160
 208 10  H  1S         -0.08610  -0.01648   0.01344  -0.01154  -0.07116
 209        2S         -0.15042   0.00116   0.01176  -0.00417  -0.12964
 210        3S         -0.00834   0.00186  -0.00286   0.01387  -0.00660
 211        4PX        -0.00170   0.00016   0.00013  -0.00243   0.00244
 212        4PY        -0.00306  -0.00004   0.00039  -0.00207  -0.00331
 213        4PZ        -0.00094  -0.00044   0.00104  -0.00029   0.00400
 214        5PX        -0.03541   0.00275  -0.01325   0.00794  -0.02976
 215        5PY        -0.03404  -0.00371   0.00922  -0.00119  -0.02491
 216        5PZ        -0.00065  -0.00004   0.00069  -0.00013  -0.00130
 217 11  H  1S          0.09730  -0.00420  -0.08427   0.08507  -0.05409
 218        2S          0.24221   0.02123  -0.11974   0.14395  -0.13096
 219        3S         -0.01618  -0.00988   0.01146   0.00559   0.00731
 220        4PX         0.00125  -0.00042  -0.00244  -0.00022  -0.00286
 221        4PY        -0.00219   0.00108   0.00563  -0.00586   0.00396
 222        4PZ        -0.00025  -0.00008  -0.00051  -0.00004   0.00237
 223        5PX         0.03608   0.01177   0.00444   0.01321  -0.01769
 224        5PY        -0.04328  -0.00133   0.02552  -0.02542   0.03146
 225        5PZ        -0.00070   0.00006  -0.00005  -0.00028  -0.00068
 226 12  H  1S         -0.09608  -0.03096   0.02711   0.11242   0.04073
 227        2S         -0.17921  -0.01701   0.05469   0.12827   0.13374
 228        3S          0.01468   0.00658  -0.01082   0.00683   0.00069
 229        4PX         0.00385   0.00155   0.00086  -0.00219  -0.00029
 230        4PY         0.00474   0.00345  -0.00126  -0.00411   0.00350
 231        4PZ        -0.00078  -0.00057   0.00046   0.00097   0.00268
 232        5PX         0.02825   0.00289  -0.00756  -0.01240  -0.01289
 233        5PY         0.04229   0.00073  -0.00707  -0.02143  -0.03058
 234        5PZ        -0.00021  -0.00011  -0.00023   0.00011   0.00063
                          11        12        13        14        15
     Eigenvalues --     2.00000   2.00000   2.00000   2.00000   2.00000
   1 1   C  1S         -0.15672  -0.22235  -0.27571   0.17816   0.02528
   2        2S          0.03027  -0.05480   0.05211   0.01427  -0.03506
   3        3S          0.10586  -0.07860   0.19028   0.00505  -0.04528
   4        4S          0.13040   0.10216  -0.15805  -0.00767   0.09796
   5        5PX         0.07012   0.05812   0.02057   0.06057   0.14473
   6        5PY        -0.00597  -0.01818   0.16670   0.10272   0.04546
   7        5PZ         0.00218   0.03137   0.03247   0.19538  -0.05276
   8        6PX         0.03138   0.02381  -0.04673   0.00636   0.05472
   9        6PY        -0.02512  -0.09984   0.14038  -0.01466  -0.03885
  10        6PZ        -0.00600   0.01646   0.01742   0.08282  -0.02763
  11        7PX        -0.02209  -0.02213   0.03480   0.00670  -0.01191
  12        7PY         0.03028   0.20878  -0.32612  -0.04903   0.00520
  13        7PZ         0.00037   0.00229   0.00008   0.00405  -0.00220
  14        8D 0       -0.00154  -0.00016   0.00213   0.00106   0.00165
  15        8D+1       -0.00111  -0.00094  -0.00128  -0.01119   0.00194
  16        8D-1       -0.00266   0.00078   0.00108  -0.00244  -0.00062
  17        8D+2       -0.00585  -0.00598   0.00095  -0.00302  -0.00665
  18        8D-2       -0.00317   0.00510  -0.01343  -0.00604  -0.00429
  19        9D 0       -0.00421  -0.00658  -0.00079  -0.00107  -0.00609
  20        9D+1        0.00063  -0.00010  -0.00062  -0.00140   0.00046
  21        9D-1        0.00190   0.00041  -0.00017   0.00017   0.00010
  22        9D+2       -0.00882  -0.00961   0.02089   0.00984   0.00376
  23        9D-2        0.00255   0.00842  -0.00282   0.00778   0.00488
  24 2   C  1S          0.10485  -0.28110   0.06191   0.19408  -0.01962
  25        2S          0.01069   0.01461  -0.06684  -0.06526  -0.02988
  26        3S         -0.02235   0.06418  -0.10439  -0.15405  -0.05853
  27        4S         -0.09390  -0.07560   0.22371   0.01045  -0.01718
  28        5PX         0.05906  -0.01912  -0.01825  -0.00775   0.00966
  29        5PY        -0.04840  -0.05836  -0.06648  -0.06414  -0.14805
  30        5PZ         0.03584   0.01361   0.01563   0.21805  -0.03392
  31        6PX        -0.00528  -0.07821   0.10054   0.05215   0.05079
  32        6PY        -0.03268  -0.03936   0.00082  -0.00140  -0.02117
  33        6PZ         0.01374   0.00529   0.00640   0.10286  -0.01583
  34        7PX         0.03076   0.20108  -0.31835  -0.04253   0.00518
  35        7PY        -0.00054   0.06257  -0.09627  -0.01530  -0.00856
  36        7PZ        -0.00315  -0.00002   0.00092   0.00227  -0.00136
  37        8D 0       -0.00041   0.00213   0.00056   0.00202   0.00243
  38        8D+1       -0.00307   0.00179   0.00109  -0.00616  -0.00165
  39        8D-1        0.00017   0.00153   0.00164   0.01019  -0.00265
  40        8D+2        0.00196   0.00351  -0.00205  -0.00038   0.00693
  41        8D-2        0.00182  -0.00092   0.00498  -0.00059  -0.00115
  42        9D 0        0.00213  -0.00006  -0.00540  -0.00088  -0.00212
  43        9D+1        0.00477   0.00094  -0.00076  -0.00392   0.00054
  44        9D-1        0.00152   0.00004  -0.00010   0.00252   0.00009
  45        9D+2        0.00253  -0.00269  -0.00343  -0.01552  -0.01871
  46        9D-2       -0.01427  -0.00300   0.01266  -0.00394  -0.00651
  47 3   C  1S          0.10040  -0.14462  -0.01815   0.00775   0.26860
  48        2S         -0.01152  -0.06092   0.00811  -0.03559  -0.02025
  49        3S         -0.03423  -0.09457  -0.03729  -0.09916  -0.08323
  50        4S          0.08238   0.35379  -0.49235   0.02304   0.09234
  51        5PX        -0.02465   0.08263  -0.04804  -0.01543   0.02124
  52        5PY        -0.00241   0.00354  -0.09942  -0.03039   0.00334
  53        5PZ         0.05724  -0.01535  -0.00323   0.20862   0.00226
  54        6PX        -0.02191  -0.02518   0.10961   0.10725   0.06496
  55        6PY        -0.00086  -0.07252  -0.02288  -0.09254  -0.10570
  56        6PZ         0.04292  -0.00752  -0.00476   0.09419   0.00431
  57        7PX         0.05400   0.10884  -0.24302  -0.04006  -0.00828
  58        7PY         0.00679  -0.03927   0.05312   0.02386   0.01465
  59        7PZ         0.00866  -0.00066  -0.00135   0.00797   0.00128
  60        8D 0        0.00013   0.00134   0.00399   0.00210   0.00250
  61        8D+1        0.00160   0.00110   0.00087   0.00877  -0.00202
  62        8D-1        0.00333  -0.00087  -0.00015   0.01080   0.00055
  63        8D+2       -0.00172   0.00353   0.00416  -0.00089  -0.00163
  64        8D-2        0.00014  -0.00435  -0.00301  -0.00232  -0.00754
  65        9D 0       -0.00420  -0.00190   0.00895   0.00006   0.00023
  66        9D+1        0.00553   0.00113  -0.00054  -0.00373   0.00033
  67        9D-1        0.00207   0.00084   0.00019  -0.00297  -0.00015
  68        9D+2        0.01191  -0.02735   0.02443   0.02650   0.03835
  69        9D-2       -0.01779   0.03318  -0.01456   0.01617   0.00489
  70 4   C  1S          0.14117  -0.22818   0.08788   0.02944   0.09642
  71        2S         -0.04308   0.00855  -0.10313   0.01433  -0.01345
  72        3S         -0.17323   0.08235  -0.14074   0.08350   0.08891
  73        4S         -0.06522  -0.19930   0.58316  -0.02988  -0.08086
  74        5PX         0.10749  -0.02981  -0.15115  -0.02966   0.04149
  75        5PY         0.00084   0.07319  -0.07773   0.04207   0.01104
  76        5PZ         0.05737  -0.01867  -0.00521   0.18237   0.01519
  77        6PX         0.01907   0.02555  -0.16319  -0.01901   0.05942
  78        6PY        -0.06361  -0.03216  -0.11579  -0.11497  -0.10385
  79        6PZ         0.03081  -0.01362  -0.00420   0.09127   0.01202
  80        7PX        -0.08813  -0.01138   0.09920   0.04022  -0.01219
  81        7PY        -0.02967  -0.04234   0.26383   0.08299   0.05507
  82        7PZ         0.00236  -0.00265  -0.00040  -0.00002   0.00320
  83        8D 0        0.00248   0.00051   0.00268  -0.00209   0.00510
  84        8D+1        0.00110  -0.00041   0.00140   0.01022  -0.00059
  85        8D-1       -0.00014   0.00114   0.00060  -0.00377  -0.00031
  86        8D+2       -0.00540   0.00212  -0.00035   0.00181  -0.00592
  87        8D-2        0.00417   0.00154  -0.00195   0.00241   0.00268
  88        9D 0        0.00414   0.00120  -0.01006   0.00193   0.01211
  89        9D+1        0.00591   0.00061  -0.00114   0.01479  -0.00047
  90        9D-1        0.01229   0.00262  -0.00101  -0.00429   0.00076
  91        9D+2        0.02306  -0.03094  -0.04414  -0.05777  -0.03724
  92        9D-2       -0.00994  -0.00459  -0.03385  -0.03215  -0.03057
  93 5   N  1S          0.19431   0.22106   0.16624  -0.01123  -0.34161
  94        2S         -0.03745  -0.00700  -0.04868   0.04482  -0.03565
  95        3S         -0.13333   0.00781  -0.04015   0.10902   0.00472
  96        4S         -0.10247   0.04000  -0.11971   0.09218   0.01638
  97        5PX        -0.06992   0.02927   0.03846   0.05681  -0.09781
  98        5PY         0.07307  -0.08014   0.06368   0.02349   0.03646
  99        5PZ         0.00624   0.01742  -0.02167  -0.06512  -0.00301
 100        6PX         0.00066   0.02312  -0.00523   0.00555  -0.01152
 101        6PY         0.03196  -0.02511  -0.01567   0.00972  -0.00834
 102        6PZ         0.00558   0.00780  -0.01073  -0.02498  -0.00087
 103        7PX         0.00378   0.00787  -0.00909  -0.00535   0.00687
 104        7PY         0.03084  -0.03466  -0.01033  -0.01728  -0.01972
 105        7PZ         0.00011   0.00156  -0.00141  -0.00394  -0.00078
 106        8D 0       -0.00515   0.00186   0.00588  -0.00007  -0.00125
 107        8D+1        0.00471  -0.00136   0.00008   0.00904   0.00139
 108        8D-1        0.03012   0.00435  -0.00418  -0.00492   0.00267
 109        8D+2       -0.02777   0.00956   0.02362  -0.00573   0.00339
 110        8D-2       -0.00240   0.00409  -0.01835  -0.00732  -0.00703
 111        9D 0        0.00608   0.00583   0.00663  -0.00421   0.00412
 112        9D+1        0.00452  -0.00012  -0.00129   0.00961   0.00053
 113        9D-1        0.00593   0.00080  -0.00080  -0.00159   0.00060
 114        9D+2        0.00929   0.00682   0.00358  -0.01547   0.00464
 115        9D-2        0.00757  -0.00418   0.00494   0.00721   0.00549
 116 6   O  1S          0.03232  -0.46751   0.17260  -0.20616  -0.19603
 117        2S          0.17623  -0.06235  -0.06565  -0.04557  -0.04523
 118        3S          0.24216  -0.04441  -0.07883  -0.06129  -0.04057
 119        4S          0.08657  -0.02849   0.02752  -0.03557  -0.01341
 120        5PX         0.13327  -0.00086  -0.17197   0.12604  -0.03523
 121        5PY        -0.17444   0.05320  -0.04323  -0.09411   0.03297
[...]
   D15       -3.14132  -0.00001   0.00000  -0.00028  -0.00028   3.14159
   D16       -3.14148  -0.00000   0.00000  -0.00012  -0.00012  -3.14159
   D17        0.00025  -0.00001   0.00000  -0.00025  -0.00025   0.00000
   D18       -0.00016   0.00001   0.00000   0.00016   0.00016   0.00000
   D19       -3.14152  -0.00000   0.00000  -0.00007  -0.00007   3.14159
   D20        3.14130   0.00001   0.00000   0.00029   0.00029  -3.14159
   D21       -0.00006  -0.00000   0.00000   0.00006   0.00006  -0.00000
         Item               Value     Threshold  Converged?
 Maximum Force            0.000022     0.000450     YES
 RMS     Force            0.000008     0.000300     YES
 Maximum Displacement     0.001457     0.001800     YES
 RMS     Displacement     0.000311     0.001200     YES
 Predicted change in Energy=-2.140763D-08
 Optimization completed.
    -- Stationary point found.
                           ----------------------------
                           !   Optimized Parameters   !
                           ! (Angstroms and Degrees)  !
 --------------------------                            --------------------------
 ! Name  Definition              Value          Derivative Info.                !
 --------------------------------------------------------------------------------
 ! R1    R(1,2)                  1.2522         -DE/DX =    0.0                 !
 ! R2    R(1,9)                  1.3887         -DE/DX =    0.0                 !
 ! R3    R(2,3)                  1.3819         -DE/DX =    0.0                 !
 ! R4    R(3,4)                  1.4157         -DE/DX =    0.0                 !
 ! R5    R(3,10)                 1.0859         -DE/DX =    0.0                 !
 ! R6    R(4,5)                  1.4799         -DE/DX =    0.0                 !
 ! R7    R(4,8)                  1.4107         -DE/DX =    0.0                 !
 ! R8    R(5,6)                  1.2281         -DE/DX =    0.0                 !
 ! R9    R(5,7)                  1.228          -DE/DX =    0.0                 !
 ! R10   R(8,9)                  1.409          -DE/DX =    0.0                 !
 ! R11   R(8,11)                 1.0879         -DE/DX =    0.0                 !
 ! R12   R(9,12)                 1.0876         -DE/DX =    0.0                 !
 ! A1    A(2,1,9)              127.7384         -DE/DX =    0.0                 !
 ! A2    A(1,2,3)              127.2552         -DE/DX =    0.0                 !
 ! A3    A(2,3,4)              109.0986         -DE/DX =    0.0                 !
 ! A4    A(2,3,10)             128.8665         -DE/DX =    0.0                 !
 ! A5    A(4,3,10)             122.0349         -DE/DX =    0.0                 !
 ! A6    A(3,4,5)              117.4843         -DE/DX =    0.0                 !
 ! A7    A(3,4,8)              124.3129         -DE/DX =    0.0                 !
 ! A8    A(5,4,8)              118.2029         -DE/DX =    0.0                 !
 ! A9    A(4,5,6)              117.4514         -DE/DX =    0.0                 !
 ! A10   A(4,5,7)              118.0025         -DE/DX =    0.0                 !
 ! A11   A(6,5,7)              124.546          -DE/DX =    0.0                 !
 ! A12   A(4,8,9)              121.1986         -DE/DX =    0.0                 !
 ! A13   A(4,8,11)             118.5123         -DE/DX =    0.0                 !
 ! A14   A(9,8,11)             120.2891         -DE/DX =    0.0                 !
 ! A15   A(1,9,8)              110.3963         -DE/DX =    0.0                 !
 ! A16   A(1,9,12)             127.1488         -DE/DX =    0.0                 !
 ! A17   A(8,9,12)             122.4549         -DE/DX =    0.0                 !
 ! D1    D(9,1,2,3)              0.0078         -DE/DX =    0.0                 !
 ! D2    D(2,1,9,8)              0.0018         -DE/DX =    0.0                 !
 ! D3    D(2,1,9,12)          -180.0123         -DE/DX =    0.0                 !
 ! D4    D(1,2,3,4)             -0.0085         -DE/DX =    0.0                 !
 ! D5    D(1,2,3,10)           179.9866         -DE/DX =    0.0                 !
 ! D6    D(2,3,4,5)            180.0022         -DE/DX =    0.0                 !
 ! D7    D(2,3,4,8)              0.0005         -DE/DX =    0.0                 !
 ! D8    D(10,3,4,5)             0.0067         -DE/DX =    0.0                 !
 ! D9    D(10,3,4,8)          -179.995          -DE/DX =    0.0                 !
 ! D10   D(3,4,5,6)             -0.0436         -DE/DX =    0.0                 !
 ! D11   D(3,4,5,7)           -180.0467         -DE/DX =    0.0                 !
 ! D12   D(8,4,5,6)           -180.042          -DE/DX =    0.0                 !
 ! D13   D(8,4,5,7)             -0.0451         -DE/DX =    0.0                 !
 ! D14   D(3,4,8,9)              0.0084         -DE/DX =    0.0                 !
 ! D15   D(3,4,8,11)           180.0159         -DE/DX =    0.0                 !
 ! D16   D(5,4,8,9)           -179.9934         -DE/DX =    0.0                 !
 ! D17   D(5,4,8,11)             0.0141         -DE/DX =    0.0                 !
 ! D18   D(4,8,9,1)             -0.0091         -DE/DX =    0.0                 !
 ! D19   D(4,8,9,12)           180.0042         -DE/DX =    0.0                 !
 ! D20   D(11,8,9,1)          -180.0168         -DE/DX =    0.0                 !
 ! D21   D(11,8,9,12)           -0.0034         -DE/DX =    0.0                 !
 --------------------------------------------------------------------------------
 GradGradGradGradGradGradGradGradGradGradGradGradGradGradGradGradGradGrad

 Leave Link  103 at Sat Nov  5 22:30:41 2016, MaxMem=   524288000 cpu:               0.0 elap:               0.0
 (Enter /home/ubuntu/g16/l9999.exe)

 ----------------------------------------------------------------------

 Electric dipole moment (input orientation):
 (Debye = 10**-18 statcoulomb cm , SI units = C m)
                  (au)            (Debye)         (10**-30 SI)
   Tot        0.128168D+01      0.325769D+01      0.108665D+02
   x         -0.118017D+01     -0.299969D+01     -0.100059D+02
   y         -0.497402D+00     -0.126427D+01     -0.421715D+01
   z          0.498629D-01      0.126739D+00      0.422755D+00

 Dipole polarizability, Alpha (input orientation).
 (esu units = cm**3 , SI units = C**2 m**2 J**-1)
 Alpha(0;0):
               (au)            (10**-24 esu)      (10**-40 SI)
   iso        0.855749D+02      0.126809D+02      0.141094D+02
   aniso      0.592199D+02      0.877548D+01      0.976404D+01
   xx         0.109633D+03      0.162460D+02      0.180761D+02
   yx         0.640930D+01      0.949760D+00      0.105675D+01
   yy         0.994639D+02      0.147390D+02      0.163994D+02
   zx        -0.892422D+00     -0.132243D+00     -0.147141D+00
   zy        -0.461085D+01     -0.683257D+00     -0.760226D+00
   zz         0.476274D+02      0.705765D+01      0.785270D+01

 ----------------------------------------------------------------------

 Dipole orientation:
     6         -0.16551978          0.09655223          2.41256887
     6         -0.93567258          1.58686117          0.74364196
     6         -0.77711816          1.28015902         -1.84493285
     6          0.42678379         -1.04855081         -2.37834868
     7          0.78050328         -1.73255201         -5.06685823
     8          0.00520861         -0.23616031         -6.66248911
     8          1.82436768         -3.74806204         -5.55013070
     6          1.30465422         -2.74664907         -0.52032924
     6          1.02954894         -2.21527126          2.07414734
     1         -1.42635677          2.53567639         -3.33250968
     1          2.20653507         -4.49006491         -1.13176995
     1          1.69190077         -3.49621896          3.53863233

 Electric dipole moment (dipole orientation):
 (Debye = 10**-18 statcoulomb cm , SI units = C m)
                  (au)            (Debye)         (10**-30 SI)
   Tot        0.128168D+01      0.325769D+01      0.108665D+02
   x          0.000000D+00      0.000000D+00      0.000000D+00
   y          0.000000D+00      0.000000D+00      0.000000D+00
   z          0.128168D+01      0.325769D+01      0.108665D+02

 Dipole polarizability, Alpha (dipole orientation).
 (esu units = cm**3 , SI units = C**2 m**2 J**-1)
 Alpha(0;0):
               (au)            (10**-24 esu)      (10**-40 SI)
   iso        0.855749D+02      0.126809D+02      0.141094D+02
   aniso      0.592199D+02      0.877548D+01      0.976404D+01
   xx         0.576647D+02      0.854503D+01      0.950762D+01
   yx        -0.201967D+02     -0.299285D+01     -0.332999D+01
   yy         0.862682D+02      0.127836D+02      0.142237D+02
   zx         0.453536D+00      0.672072D-01      0.747781D-01
   zy        -0.880334D+00     -0.130452D+00     -0.145147D+00
   zz         0.112792D+03      0.167140D+02      0.185968D+02

 ----------------------------------------------------------------------
 1\1\GINC-LC06-2-7\Freq\UB3LYP\Aug-CC-pVDZ\C6H3N1O2\UBUNTU\05-Nov-2016\
 0\\#P Geom=AllCheck Guess=TCheck SCRF=Check GenChk UB3LYP/Aug-CC-pVDZ 
 Freq\\s-4-NO2C6H3_UB3LYP-aug-cc-pVDZ\\0,1\C,-1.2092452429,-0.421647602
 2,-0.0111552872\C,-0.7422374863,0.7355859313,-0.1147239812\C,0.5903435
 228,1.0995624094,-0.153744016\C,1.3912760697,-0.0636782789,-0.05634387
 92\N,2.8602183572,0.1145841114,-0.0798085469\O,3.2899038745,1.26045320
 59,-0.1831245377\O,3.5641367251,-0.8881133563,0.0049637685\C,0.8804329
 636,-1.3733686613,0.0609319245\C,-0.5072601456,-1.6156854134,0.0894230
 21\H,1.0234876136,2.0913096039,-0.2428801159\H,1.583461288,-2.20078852
 3,0.1297608391\H,-0.9232475398,-2.6165834268,0.1792508109\\Version=ES6
 4L-G16RevA.03\State=1-A\HF=-435.4712342\S2=0.\S2-1=0.\S2A=0.\RMSD=1.65
 7e-09\RMSF=1.447e-05\ZeroPoint=0.0774591\Thermal=0.0843782\Dipole=-1.1
 801686,-0.497402,0.0498629\DipoleDeriv=-0.5114233,-0.6855603,0.0626455
 ,-0.0386463,0.1034371,-0.0087757,0.0061329,-0.005306,0.0012503,-0.0389
 884,0.4630219,-0.040285,-0.1575899,-0.6387142,0.0558509,0.0139133,0.05
 25111,-0.0140956,0.3420476,0.0328901,-0.004963,0.0670796,0.2632702,-0.
 0271187,-0.0078447,-0.0269856,-0.0404444,-0.441633,-0.0895067,0.010286
 3,-0.138813,0.0374155,-0.000274,0.0146837,-0.0005153,0.0247044,1.82077
 72,0.0401305,-0.0117522,0.0950885,1.52476,-0.1128932,-0.0166016,-0.112
 4463,0.2627375,-0.723428,-0.3326499,0.0319225,-0.2273193,-0.9363702,0.
 0631464,0.0225899,0.0636164,-0.2405998,-0.8967271,0.3304757,-0.0257163
 ,0.2463546,-0.7884377,0.0474265,-0.0182511,0.0469341,-0.2408873,0.0792
 806,-0.0779347,0.0060879,0.1942397,-0.1685423,0.0079491,-0.017788,0.00
 93651,-0.0663803,0.077381,0.3060343,-0.0277653,0.0028897,0.4321599,-0.
 0474726,-0.0013051,-0.0491492,-0.1064768,0.1254222,-0.00545,0.0005083,
 -0.0363241,0.0857526,0.0042009,0.0031796,0.0040658,0.1313963,0.0978193
 ,0.0646683,-0.0053472,0.0111999,0.0997152,0.004787,-0.000676,0.0045444
 ,0.15486,0.0694719,-0.0461193,0.0043785,-0.0181593,-0.0144459,0.013173
 3,0.0019671,0.0133656,0.1339357\Polar=109.6333106,6.4092991,99.4639155
 ,-0.8924223,-4.6108452,47.6274129\Quadrupole=-5.7601678,4.7231094,1.03
 70584,1.0886721,-0.0593025,-0.3286289\PG=C01 [X(C6H3N1O2)]\NImag=0\\0.
 26007080,0.14681247,1.00513199,-0.01391385,-0.08373022,0.06297022,-0.0
 8598472,-0.25297341,0.02237299,0.49017314,-0.28785400,-0.65307408,0.05
 570875,0.36675326,0.79300441,0.02542583,0.05552004,-0.03778851,-0.0343
 8364,-0.06650405,0.06016505,-0.02833116,-0.07705928,0.00685321,-0.3144
 2299,-0.08246317,0.00871113,0.61733407,0.00020855,0.00299706,-0.000893
 24,-0.13216595,-0.09787632,0.00612770,0.12707643,0.70307672,0.00009698
 ,-0.00047861,-0.00713335,0.01306091,0.00586394,-0.03655449,-0.01383514
 ,-0.05216812,0.11918369,-0.01286723,0.00234088,-0.00015741,-0.06052541
 ,-0.00132443,0.00048969,-0.13282577,0.10389905,-0.00866754,0.51596913,
 -0.00876767,-0.07431346,0.00622685,0.06798143,0.04690976,-0.00365414,0
 .04507831,-0.24815821,0.01648586,-0.01039426,0.68213084,0.00081944,0.0
 0616897,-0.00418134,-0.00557188,-0.00328436,0.00958798,-0.00352917,0.0
 1617231,-0.05822215,-0.00109889,-0.04738142,0.14430434,0.00234766,0.00
 270285,-0.00021400,0.00377999,0.00534137,-0.00046932,-0.03833489,0.010
 80976,-0.00074629,-0.11099854,-0.00191844,0.00033348,0.63512444,0.0047
 3914,-0.00623771,0.00107344,0.00603573,-0.00167793,0.00041242,0.018928
 88,0.01586556,-0.00151295,-0.00190574,-0.10270158,0.00195502,-0.039558
 93,0.92557272,-0.00039321,0.00108894,0.00622764,-0.00053257,0.00041565
 ,0.00336922,-0.00144288,-0.00147333,-0.00013084,0.00033082,0.00195840,
 -0.08055444,0.00136219,-0.06110294,0.23549046,-0.00048835,-0.00243729,
 0.00021095,-0.00043003,-0.00066506,0.00006020,-0.00364812,-0.00138388,
 0.00015188,-0.02640628,-0.05065949,0.00470449,-0.19458691,-0.14929340,
 0.01378582,0.19335490,0.00081399,0.00080562,-0.00014205,-0.00266259,0.
 00135841,-0.00010532,0.00789173,-0.00737414,0.00071053,-0.03622859,-0.
 02275676,0.00389104,-0.14484680,-0.45542859,0.03415140,0.16847850,0.59
 401775,-0.00007248,-0.00012557,-0.00074965,0.00023666,-0.00011492,-0.0
 0000152,-0.00066790,0.00076177,0.00116873,0.00343497,0.00396912,0.0188
 5377,0.01339547,0.03417062,-0.07988300,-0.01573307,-0.05079205,0.03268
 945,-0.00371963,0.00109922,-0.00008375,-0.00412180,-0.00181095,0.00017
 984,-0.00151166,-0.00646695,0.00058525,-0.04518309,0.04346612,-0.00349
 246,-0.28238656,0.19543205,-0.01615868,0.04483206,0.00918806,-0.000907
 21,0.29937549,0.00084862,0.00215467,-0.00034985,0.00081113,0.00276007,
 -0.00027586,-0.00183653,0.00075458,0.00016071,0.02983217,-0.00164159,0
 .00170208,0.18996125,-0.36860021,0.02479397,0.03356482,-0.11901394,0.0
 1268051,-0.24495014,0.48771389,-0.00006613,-0.00035179,-0.00175566,-0.
 00005096,-0.00026204,-0.00030826,0.00017993,0.00018329,0.00245564,-0.0
 0229042,0.00163076,0.01930426,-0.01568007,0.02476597,-0.07830434,-0.00
 305369,0.01280747,0.02560658,0.02018854,-0.03930087,0.03094783,-0.0423
 6773,0.08638280,-0.00726165,-0.04002028,-0.03236638,0.00302644,0.04455
 940,-0.00312751,0.00006854,-0.12215723,-0.02099634,0.00210745,-0.02514
 215,-0.02845097,0.00259775,-0.00481295,-0.00098151,0.00013169,-0.00278
 222,-0.00811320,0.00073867,0.67210491,0.02015555,0.03661326,-0.0022576
 6,-0.02775297,-0.04956829,0.00421133,0.04641997,-0.04322751,0.00410519
 ,-0.07642744,-0.27038216,0.01788274,-0.02155792,0.00668382,-0.00073111
 ,0.00592633,0.00392783,-0.00010812,0.00201005,-0.00804578,0.00085622,-
 0.05882900,0.67020690,-0.00147132,-0.00261286,0.01226873,0.00262238,0.
 00423384,-0.00349812,-0.00425775,0.00437073,0.00621105,0.00694790,0.01
 758467,-0.07221969,0.00200942,-0.00068538,-0.00284509,-0.00047419,-0.0
 0006878,0.00307736,-0.00015597,0.00090642,0.00174453,0.00236586,-0.046
 17861,0.14316093,-0.09210172,0.07537877,-0.00627952,0.02427868,0.05339
 376,-0.00483562,-0.04693894,0.01084241,-0.00063575,-0.02341475,-0.0711
 7955,0.00637663,0.00664003,-0.00489303,0.00040775,-0.00284558,-0.00219
 640,0.00020413,0.00023667,0.00239115,-0.00020895,-0.29869467,-0.011518
 13,0.00225800,0.54451534,0.12949336,-0.29765976,0.02214701,-0.02444250
 ,-0.04474444,0.00347225,0.01987825,-0.01447631,0.00216369,-0.01864733,
 0.01947354,-0.00113632,-0.00225689,-0.00697376,0.00079901,-0.00149942,
 0.00031465,-0.00006648,0.00223270,-0.00018240,0.00006090,-0.08042361,-
 0.11878577,0.00562356,0.06094582,0.75473574,-0.01101202,0.02243824,-0.
 03819486,0.00197048,0.00305869,-0.00679918,-0.00142802,0.00221391,0.01
 132351,0.00179044,-0.00085050,0.00546430,0.00017195,0.00081465,0.00196
 559,0.00014210,-0.00006553,-0.00054888,-0.00019353,0.00005852,0.000627
 93,0.00829002,0.00525618,-0.05990361,-0.00763089,-0.05646885,0.1177457
 8,0.00038080,-0.00266300,0.00026819,-0.01276534,-0.02256744,0.00204375
 ,-0.09329853,-0.10663826,0.00963687,0.01082774,0.01510291,-0.00135380,
 0.00171321,0.00099186,-0.00011494,-0.00436275,-0.00053893,0.00007057,0
 .00039133,-0.00139766,0.00012186,-0.00193119,0.00220528,-0.00014255,-0
 .00192260,0.00043736,-0.00002877,0.10008799,-0.00055217,0.00195406,0.0
 0043998,-0.00025053,0.00249819,-0.00021103,-0.10349349,-0.30700852,0.0
 2421661,-0.00928978,-0.01553340,0.00182425,-0.00199934,-0.00361841,0.0
 0004249,-0.00177705,0.00295534,-0.00026392,0.00001474,0.00105928,-0.00
 008739,0.00314430,-0.00043698,0.00066833,0.00030629,0.00042430,-0.0000
 5290,0.11453310,0.31826649,0.00008124,0.00045158,0.00690085,0.00009151
 ,-0.00009277,0.00008667,0.00936468,0.02423724,-0.03883543,0.00077633,0
 .00169150,0.00459578,0.00015035,0.00002534,-0.00328173,0.00018000,-0.0
 0027124,-0.00014426,-0.00000435,-0.00007721,0.00007665,-0.00022422,0.0
 0067232,0.00733095,-0.00001636,-0.00005412,-0.00015912,-0.01043845,-0.
 02644597,0.02550430,-0.00299365,0.00126753,-0.00007794,-0.00271080,0.0
 0095561,-0.00004697,-0.00106165,-0.00429273,0.00038574,0.01098032,-0.0
 0828512,0.00068973,0.00129545,-0.00048345,0.00002253,0.00006290,0.0012
 4406,-0.00010911,-0.00504094,-0.00128431,0.00013617,-0.17214717,0.1453
 3650,-0.01202677,-0.01221177,0.01989152,-0.00164991,0.00069273,-0.0005
 4851,0.00004585,0.18212130,-0.00079519,0.00085697,0.00022130,-0.001718
 33,0.00187575,0.00021688,-0.00184566,-0.00436267,0.00046510,0.01851193
 ,-0.01513088,0.00160207,0.00289845,-0.00308163,0.00002182,-0.00023689,
 0.00123039,-0.00008589,-0.00004019,0.00295676,-0.00029206,0.14198992,-
 0.22789808,0.01596458,-0.00635874,0.00677392,-0.00009821,0.00080058,-0
 .00049808,0.00007251,-0.15355309,0.23690171,0.00010282,0.00021018,0.00
 331422,0.00018822,0.00019981,0.00421999,0.00017095,0.00047717,0.000792
 28,-0.00165290,0.00174126,0.00414213,-0.00027621,0.00003837,-0.0026797
 6,0.00002241,-0.00009129,0.00025193,0.00002672,-0.00028614,-0.00035130
 ,-0.01173787,0.01595219,-0.03852564,0.00064982,-0.00023662,0.00528871,
 -0.00007143,0.00007982,0.00037675,0.01263378,-0.01771579,0.02699150,0.
 00605494,0.01914847,-0.00171721,0.00274956,0.00260744,-0.00020132,-0.0
 0151977,0.00123909,-0.00010145,-0.00339889,0.00057211,0.00001497,0.000
 54826,-0.00154216,0.00013542,-0.00066890,-0.00016152,0.00001627,-0.000
 08966,0.00017271,-0.00001494,-0.00660872,-0.02596822,0.00232499,-0.097
 54070,-0.10560928,0.00957814,0.00018662,-0.00008757,-0.00000659,0.0010
 1328,0.00034721,-0.00005632,0.09927398,-0.00510267,-0.01922863,0.00155
 570,0.00038474,-0.00146554,0.00078977,0.00142456,-0.00021024,-0.000011
 96,-0.00036645,0.00210388,0.00060363,0.00042464,0.00019772,0.00003570,
 -0.00001718,-0.00003656,-0.00002506,-0.00017472,0.00008466,-0.00001045
 ,0.00177150,0.00091275,0.00019350,-0.10711234,-0.29889971,0.02369581,-
 0.00026580,-0.00006229,-0.00020918,-0.00024799,0.00037585,-0.00036896,
 0.10928173,0.31622812,0.00040271,0.00142110,-0.00187829,-0.00000411,0.
 00077747,0.00752118,-0.00011904,-0.00000943,-0.00025865,0.00009701,0.0
 0059763,0.00892506,-0.00003698,0.00004545,0.00062629,0.00000308,-0.000
 02420,-0.00032051,0.00001560,-0.00001229,-0.00004386,-0.00010269,0.000
 33935,0.00319860,0.00971076,0.02369598,-0.03681017,0.00000870,-0.00021
 026,-0.00245141,-0.00000309,-0.00037230,-0.00382080,-0.00997195,-0.026
 24850,0.02531256\\0.00002656,-0.00001097,-0.00000184,-0.00002331,0.000
 02123,0.00000975,0.00001716,-0.00002777,0.00000810,-0.00000133,0.00003
 544,-0.00000397,-0.00000381,-0.00002846,-0.00000616,-0.00000102,0.0000
 1211,0.00000004,-0.00000921,0.00001132,0.00000319,0.00001846,-0.000011
 09,-0.00000424,-0.00002388,-0.00000543,-0.00001629,-0.00000020,-0.0000
 0358,-0.00000402,-0.00001426,-0.00000007,0.00000998,0.00001484,0.00000
 728,0.00000547\\\@


       THE DEATH-KNELL OF THE ATOM

 SO THE ATOMS IN TURN, WE NOW CLEARLY DISCERN,
 FLY TO BITS WITH THE UTMOST FACILITY;
 THEY WEND ON THEIR WAY, AND, IN SPLITTING, DISPLAY
 AN ABSOLUTE LACK OF STABILITY.

          SIR WM. RAMSAY, 1905
 Job cpu time:       0 days  1 hours 14 minutes 24.7 seconds.
 Elapsed time:       0 days  0 hours 10 minutes 37.9 seconds.
 File lengths (MBytes):  RWF=    143 Int=      0 D2E=      0 Chk=      7 Scr=      1
 Normal termination of Gaussian 16 at Sat Nov  5 22:30:41 2016.
