 Entering Gaussian System, Link 0=/home/ubuntu/g16/g16
 Input=s-4-MeOC6H3_UB3LYP-aug-cc-pVDZ-Opt.gjf
 Output=s-4-MeOC6H3_UB3LYP-aug-cc-pVDZ-Opt.log
 Initial command:
 /home/ubuntu/g16/l1.exe "/home/ubuntu/g16/Gau-18087.inp" -scrdir="/home/ubuntu/g16/"
 Entering Link 1 = /home/ubuntu/g16/l1.exe PID=     18089.
  
 Copyright (c) 1988,1990,1992,1993,1995,1998,2003,2009,2016,
            Gaussian, Inc.  All Rights Reserved.
  
 This is part of the Gaussian(R) 16 program.  It is based on
 the Gaussian(R) 09 system (copyright 2009, Gaussian, Inc.),
 the Gaussian(R) 03 system (copyright 2003, Gaussian, Inc.),
 the Gaussian(R) 98 system (copyright 1998, Gaussian, Inc.),
 the Gaussian(R) 94 system (copyright 1995, Gaussian, Inc.),
 the Gaussian 92(TM) system (copyright 1992, Gaussian, Inc.),
 the Gaussian 90(TM) system (copyright 1990, Gaussian, Inc.),
 the Gaussian 88(TM) system (copyright 1988, Gaussian, Inc.),
 the Gaussian 86(TM) system (copyright 1986, Carnegie Mellon
 University), and the Gaussian 82(TM) system (copyright 1983,
 Carnegie Mellon University). Gaussian is a federally registered
 trademark of Gaussian, Inc.
  
 This software contains proprietary and confidential information,
 including trade secrets, belonging to Gaussian, Inc.
  
 This software is provided under written license and may be
 used, copied, transmitted, or stored only in accord with that
 written license.
  
 The following legend is applicable only to US Government
 contracts under FAR:
  
                    RESTRICTED RIGHTS LEGEND
  
 Use, reproduction and disclosure by the US Government is
 subject to restrictions as set forth in subparagraphs (a)
 and (c) of the Commercial Computer Software - Restricted
 Rights clause in FAR 52.227-19.
  
 Gaussian, Inc.
 340 Quinnipiac St., Bldg. 40, Wallingford CT 06492
  
  
 ---------------------------------------------------------------
 Warning -- This program may not be used in any manner that
 competes with the business of Gaussian, Inc. or will provide
 assistance to any competitor of Gaussian, Inc.  The licensee
 of this program is prohibited from giving any competitor of
 Gaussian, Inc. access to this program.  By using this program,
 the user acknowledges that Gaussian, Inc. is engaged in the
 business of creating and licensing software in the field of
 computational chemistry and represents and warrants to the
 licensee that it is not a competitor of Gaussian, Inc. and that
 it will not use this program in any manner prohibited above.
 ---------------------------------------------------------------
  

 Cite this work as:
 Gaussian 16, Revision A.03,
 M. J. Frisch, G. W. Trucks, H. B. Schlegel, G. E. Scuseria, 
 M. A. Robb, J. R. Cheeseman, G. Scalmani, V. Barone, 
 G. A. Petersson, H. Nakatsuji, X. Li, M. Caricato, A. V. Marenich, 
 J. Bloino, B. G. Janesko, R. Gomperts, B. Mennucci, H. P. Hratchian, 
 J. V. Ortiz, A. F. Izmaylov, J. L. Sonnenberg, D. Williams-Young, 
 F. Ding, F. Lipparini, F. Egidi, J. Goings, B. Peng, A. Petrone, 
 T. Henderson, D. Ranasinghe, V. G. Zakrzewski, J. Gao, N. Rega, 
 G. Zheng, W. Liang, M. Hada, M. Ehara, K. Toyota, R. Fukuda, 
 J. Hasegawa, M. Ishida, T. Nakajima, Y. Honda, O. Kitao, H. Nakai, 
 T. Vreven, K. Throssell, J. A. Montgomery, Jr., J. E. Peralta, 
 F. Ogliaro, M. J. Bearpark, J. J. Heyd, E. N. Brothers, K. N. Kudin, 
 V. N. Staroverov, T. A. Keith, R. Kobayashi, J. Normand, 
 K. Raghavachari, A. P. Rendell, J. C. Burant, S. S. Iyengar, 
 J. Tomasi, M. Cossi, J. M. Millam, M. Klene, C. Adamo, R. Cammi, 
 J. W. Ochterski, R. L. Martin, K. Morokuma, O. Farkas, 
 J. B. Foresman, and D. J. Fox, Gaussian, Inc., Wallingford CT, 2016.
 
 ******************************************
 Gaussian 16:  ES64L-G16RevA.03 25-Dec-2016
                 5-Nov-2016 
 ******************************************
 %chk=s-4-MeOC6H3_UB3LYP-aug-cc-pVDZ-Opt.chk
 %mem=500MW
 %nproc=7
 Will use up to    7 processors via shared memory.
 ----------------------------------------------------------------------
 #p opt=(maxcycles=777) freq ub3lyp/aug-cc-pVDZ pop=(Bonding,AllOrbital
 s,mk,no,nboread)
 ----------------------------------------------------------------------
 1/6=777,18=20,19=15,26=3,38=1/1,3;
 2/9=110,12=2,17=6,18=5,40=1/2;
 3/5=16,7=10,11=2,25=1,30=1,71=1,74=-5,116=2/1,2,3;
 4//1;
 5/5=2,38=5/2;
 6/7=2,8=2,9=2,10=2,15=8,20=1,22=-1,27=20,28=1,31=1,40=2,96=-1/1,2,7;
 7//1,2,3,16;
 1/6=777,18=20,19=15,26=3/3(2);
 2/9=110/2;
 99//99;
 2/9=110/2;
 3/5=16,7=10,11=2,25=1,30=1,71=1,74=-5,116=2/1,2,3;
 4/5=5,16=3,69=1/1;
 5/5=2,38=5/2;
 7//1,2,3,16;
 1/6=777,18=20,19=15,26=3/3(-5);
 2/9=110/2;
 6/7=2,8=2,9=2,10=2,15=8,19=2,20=1,22=-1,27=20,28=1,31=1,40=2,96=-1/1,2,7;
 99/9=1/99;
 Leave Link    1 at Sat Nov  5 20:18:11 2016, MaxMem=   524288000 cpu:               0.3 elap:               0.0
 (Enter /home/ubuntu/g16/l101.exe)
 ------------------------------
 s-4-MeOC6H3_UB3LYP-aug-cc-pVDZ
 ------------------------------
 Symbolic Z-matrix:
 Charge =  0 Multiplicity = 1
 C                    -1.33195  -0.35003  -0.06043 
 C                    -0.78369   0.77668  -0.02309 
 C                     0.56057   1.07381  -0.10712 
 C                     1.32343  -0.11968  -0.25106 
 O                     2.67349   0.08125  -0.34215 
 C                     3.5271   -1.04963  -0.476 
 C                     0.71488  -1.39976  -0.29428 
 C                    -0.68463  -1.56851  -0.19671 
 H                     1.04353   2.04768  -0.07326 
 H                     4.54459  -0.65018  -0.52774 
 H                     3.3075   -1.60882  -1.39892 
 H                     3.43814  -1.72041   0.39281 
 H                     1.33025  -2.28995  -0.40485 
 H                    -1.15004  -2.55184  -0.23161 
 
 ITRead=  0  0  0  0  0  0  0  0  0  0  0  0  0  0
 MicOpt= -1 -1 -1 -1 -1 -1 -1 -1 -1 -1 -1 -1 -1 -1
 NAtoms=     14 NQM=       14 NQMF=       0 NMMI=      0 NMMIF=      0
                NMic=       0 NMicF=      0.
                    Isotopes and Nuclear Properties:
 (Nuclear quadrupole moments (NQMom) in fm**2, nuclear magnetic moments (NMagM)
  in nuclear magnetons)

  Atom         1           2           3           4           5           6           7           8           9          10
 IAtWgt=          12          12          12          12          16          12          12          12           1           1
 AtmWgt=  12.0000000  12.0000000  12.0000000  12.0000000  15.9949146  12.0000000  12.0000000  12.0000000   1.0078250   1.0078250
 NucSpn=           0           0           0           0           0           0           0           0           1           1
 AtZEff=  -0.0000000  -0.0000000  -0.0000000  -0.0000000  -0.0000000  -0.0000000  -0.0000000  -0.0000000  -0.0000000  -0.0000000
 NQMom=    0.0000000   0.0000000   0.0000000   0.0000000   0.0000000   0.0000000   0.0000000   0.0000000   0.0000000   0.0000000
 NMagM=    0.0000000   0.0000000   0.0000000   0.0000000   0.0000000   0.0000000   0.0000000   0.0000000   2.7928460   2.7928460
 AtZNuc=   6.0000000   6.0000000   6.0000000   6.0000000   8.0000000   6.0000000   6.0000000   6.0000000   1.0000000   1.0000000

  Atom        11          12          13          14
 IAtWgt=           1           1           1           1
 AtmWgt=   1.0078250   1.0078250   1.0078250   1.0078250
 NucSpn=           1           1           1           1
 AtZEff=  -0.0000000  -0.0000000  -0.0000000  -0.0000000
 NQMom=    0.0000000   0.0000000   0.0000000   0.0000000
 NMagM=    2.7928460   2.7928460   2.7928460   2.7928460
 AtZNuc=   1.0000000   1.0000000   1.0000000   1.0000000
 Leave Link  101 at Sat Nov  5 20:18:12 2016, MaxMem=   524288000 cpu:               1.3 elap:               0.2
 (Enter /home/ubuntu/g16/l103.exe)

 GradGradGradGradGradGradGradGradGradGradGradGradGradGradGradGradGradGrad
 Berny optimization.
 Initialization pass.
                           ----------------------------
                           !    Initial Parameters    !
                           ! (Angstroms and Degrees)  !
 --------------------------                            --------------------------
 ! Name  Definition              Value          Derivative Info.                !
 --------------------------------------------------------------------------------
 ! R1    R(1,2)                  1.2536         estimate D2E/DX2                !
 ! R2    R(1,8)                  1.3865         estimate D2E/DX2                !
 ! R3    R(2,3)                  1.3793         estimate D2E/DX2                !
 ! R4    R(3,4)                  1.4238         estimate D2E/DX2                !
 ! R5    R(3,9)                  1.0876         estimate D2E/DX2                !
 ! R6    R(4,5)                  1.368          estimate D2E/DX2                !
 ! R7    R(4,7)                  1.418          estimate D2E/DX2                !
 ! R8    R(5,6)                  1.4232         estimate D2E/DX2                !
 ! R9    R(6,10)                 1.0943         estimate D2E/DX2                !
 ! R10   R(6,11)                 1.1012         estimate D2E/DX2                !
 ! R11   R(6,12)                 1.1012         estimate D2E/DX2                !
 ! R12   R(7,8)                  1.413          estimate D2E/DX2                !
 ! R13   R(7,13)                 1.0878         estimate D2E/DX2                !
 ! R14   R(8,14)                 1.0885         estimate D2E/DX2                !
 ! A1    A(2,1,8)              126.0598         estimate D2E/DX2                !
 ! A2    A(1,2,3)              128.1749         estimate D2E/DX2                !
 ! A3    A(2,3,4)              110.3517         estimate D2E/DX2                !
 ! A4    A(2,3,9)              128.5946         estimate D2E/DX2                !
 ! A5    A(4,3,9)              121.0535         estimate D2E/DX2                !
 ! A6    A(3,4,5)              114.3556         estimate D2E/DX2                !
 ! A7    A(3,4,7)              121.9958         estimate D2E/DX2                !
 ! A8    A(5,4,7)              123.6486         estimate D2E/DX2                !
 ! A9    A(4,5,6)              118.7825         estimate D2E/DX2                !
 ! A10   A(5,6,10)             105.7879         estimate D2E/DX2                !
 ! A11   A(5,6,11)             111.2667         estimate D2E/DX2                !
 ! A12   A(5,6,12)             111.184          estimate D2E/DX2                !
 ! A13   A(10,6,11)            109.3382         estimate D2E/DX2                !
 ! A14   A(10,6,12)            109.5578         estimate D2E/DX2                !
 ! A15   A(11,6,12)            109.6207         estimate D2E/DX2                !
 ! A16   A(4,7,8)              122.0562         estimate D2E/DX2                !
 ! A17   A(4,7,13)             119.9371         estimate D2E/DX2                !
 ! A18   A(8,7,13)             118.0067         estimate D2E/DX2                !
 ! A19   A(1,8,7)              111.3616         estimate D2E/DX2                !
 ! A20   A(1,8,14)             126.6888         estimate D2E/DX2                !
 ! A21   A(7,8,14)             121.9494         estimate D2E/DX2                !
 ! D1    D(8,1,2,3)              0.0586         estimate D2E/DX2                !
 ! D2    D(2,1,8,7)             -0.0562         estimate D2E/DX2                !
 ! D3    D(2,1,8,14)          -179.9151         estimate D2E/DX2                !
 ! D4    D(1,2,3,4)             -0.0322         estimate D2E/DX2                !
 ! D5    D(1,2,3,9)           -179.8462         estimate D2E/DX2                !
 ! D6    D(2,3,4,5)           -179.9913         estimate D2E/DX2                !
 ! D7    D(2,3,4,7)              0.0146         estimate D2E/DX2                !
 ! D8    D(9,3,4,5)             -0.161          estimate D2E/DX2                !
 ! D9    D(9,3,4,7)            179.8449         estimate D2E/DX2                !
 ! D10   D(3,4,5,6)            179.4181         estimate D2E/DX2                !
 ! D11   D(7,4,5,6)             -0.588          estimate D2E/DX2                !
 ! D12   D(3,4,7,8)             -0.0227         estimate D2E/DX2                !
 ! D13   D(3,4,7,13)          -179.9756         estimate D2E/DX2                !
 ! D14   D(5,4,7,8)            179.9837         estimate D2E/DX2                !
 ! D15   D(5,4,7,13)             0.0309         estimate D2E/DX2                !
 ! D16   D(4,5,6,10)          -179.8984         estimate D2E/DX2                !
 ! D17   D(4,5,6,11)            61.4606         estimate D2E/DX2                !
 ! D18   D(4,5,6,12)           -61.0384         estimate D2E/DX2                !
 ! D19   D(4,7,8,1)              0.0385         estimate D2E/DX2                !
 ! D20   D(4,7,8,14)           179.9051         estimate D2E/DX2                !
 ! D21   D(13,7,8,1)           179.9922         estimate D2E/DX2                !
 ! D22   D(13,7,8,14)           -0.1411         estimate D2E/DX2                !
 --------------------------------------------------------------------------------
 Trust Radius=3.00D-01 FncErr=1.00D-07 GrdErr=1.00D-06 EigMax=2.50D+02 EigMin=1.00D-04
 Number of steps in this run=    100 maximum allowed number of steps=    100.
 GradGradGradGradGradGradGradGradGradGradGradGradGradGradGradGradGradGrad

 Leave Link  103 at Sat Nov  5 20:18:12 2016, MaxMem=   524288000 cpu:               0.0 elap:               0.0
 (Enter /home/ubuntu/g16/l202.exe)
                          Input orientation:                          
 ---------------------------------------------------------------------
 Center     Atomic      Atomic             Coordinates (Angstroms)
 Number     Number       Type             X           Y           Z
 ---------------------------------------------------------------------
      1          6           0       -1.331950   -0.350030   -0.060430
      2          6           0       -0.783690    0.776680   -0.023090
      3          6           0        0.560570    1.073810   -0.107120
      4          6           0        1.323430   -0.119680   -0.251060
      5          8           0        2.673490    0.081250   -0.342150
      6          6           0        3.527100   -1.049630   -0.476000
      7          6           0        0.714880   -1.399760   -0.294280
      8          6           0       -0.684630   -1.568510   -0.196710
      9          1           0        1.043530    2.047680   -0.073260
     10          1           0        4.544590   -0.650180   -0.527740
     11          1           0        3.307500   -1.608820   -1.398920
     12          1           0        3.438140   -1.720410    0.392810
     13          1           0        1.330250   -2.289950   -0.404850
     14          1           0       -1.150040   -2.551840   -0.231610
 ---------------------------------------------------------------------
                    Distance matrix (angstroms):
                    1          2          3          4          5
     1  C    0.000000
     2  C    1.253578   0.000000
     3  C    2.368783   1.379269   0.000000
     4  C    2.672161   2.301171   1.423760   0.000000
     5  O    4.038430   3.540835   2.346241   1.367966   0.000000
     6  C    4.926713   4.703557   3.666793   2.402408   1.423185
     7  C    2.312170   2.656341   2.485435   1.418029   2.455979
     8  C    1.386466   2.353693   2.922397   2.476765   3.744306
     9  H    3.375216   2.226363   1.087575   2.192580   2.568252
    10  H    5.902727   5.539058   4.361362   3.276256   2.017535
    11  H    4.990051   4.931668   4.051034   2.733433   2.091666
    12  H    4.983686   4.922629   4.042030   2.729268   2.090654
    13  H    3.311982   3.744156   3.463514   2.175723   2.725952
    14  H    2.215933   3.355106   4.010863   3.468982   4.643788
                    6          7          8          9         10
     6  C    0.000000
     7  C    2.839753   0.000000
     8  C    4.252753   1.413020   0.000000
     9  H    3.990445   3.470116   4.009814   0.000000
    10  H    1.094314   3.909354   5.319554   4.443245   0.000000
    11  H    1.101226   2.825883   4.169417   4.500325   1.791183
    12  H    1.101222   2.826845   4.167474   4.488862   1.793610
    13  H    2.523808   1.087816   2.150242   4.359724   3.610530
    14  H    4.918536   2.192976   1.088468   5.098275   6.011058
                   11         12         13         14
    11  H    0.000000
    12  H    1.799949   0.000000
    13  H    2.315520   2.324616   0.000000
    14  H    4.703356   4.704527   2.500087   0.000000
 Stoichiometry    C7H6O
 Framework group  C1[X(C7H6O)]
 Deg. of freedom    36
 Full point group                 C1      NOp   1
 Largest Abelian subgroup         C1      NOp   1
 Largest concise Abelian subgroup C1      NOp   1
                         Standard orientation:                         
 ---------------------------------------------------------------------
 Center     Atomic      Atomic             Coordinates (Angstroms)
 Number     Number       Type             X           Y           Z
 ---------------------------------------------------------------------
      1          6           0        2.294743    0.170326    0.002040
      2          6           0        1.857417   -1.004495    0.002492
      3          6           0        0.543862   -1.425150    0.000003
      4          6           0       -0.334820   -0.304881   -0.002646
      5          8           0       -1.663562   -0.630104   -0.005043
      6          6           0       -2.625714    0.418524    0.004867
      7          6           0        0.147740    1.028514   -0.002867
      8          6           0        1.529048    1.326179    0.000002
      9          1           0        0.156986   -2.441585    0.002657
     10          1           0       -3.602926   -0.073995    0.002673
     11          1           0       -2.534846    1.052460   -0.890994
     12          1           0       -2.528006    1.039712    0.908896
     13          1           0       -0.553927    1.859780   -0.004526
     14          1           0        1.897552    2.350368   -0.001702
 ---------------------------------------------------------------------
 Rotational constants (GHZ):           5.1077098           1.7076905           1.2904831
 Leave Link  202 at Sat Nov  5 20:18:12 2016, MaxMem=   524288000 cpu:               0.0 elap:               0.0
 (Enter /home/ubuntu/g16/l301.exe)
 Standard basis: Aug-CC-pVDZ (5D, 7F)
 Ernie: Thresh=  0.10000D-02 Tol=  0.10000D-05 Strict=F.
 Ernie:  16 primitive shells out of 242 were deleted.
 There are   254 symmetry adapted cartesian basis functions of A   symmetry.
 There are   238 symmetry adapted basis functions of A   symmetry.
   238 basis functions,   410 primitive gaussians,   254 cartesian basis functions
    28 alpha electrons       28 beta electrons
       nuclear repulsion energy       326.0695330758 Hartrees.
 IExCor=  402 DFT=T Ex+Corr=B3LYP ExCW=0 ScaHFX=  0.200000
 ScaDFX=  0.800000  0.720000  1.000000  0.810000 ScalE2=  1.000000  1.000000
 IRadAn=      5 IRanWt=     -1 IRanGd=            0 ICorTp=0 IEmpDi=  4
 NAtoms=   14 NActive=   14 NUniq=   14 SFac= 1.00D+00 NAtFMM=   60 NAOKFM=F Big=F
 Integral buffers will be    131072 words long.
 Raffenetti 2 integral format.
 Two-electron integral symmetry is turned on.
 Leave Link  301 at Sat Nov  5 20:18:12 2016, MaxMem=   524288000 cpu:               0.2 elap:               0.0
 (Enter /home/ubuntu/g16/l302.exe)
 NPDir=0 NMtPBC=     1 NCelOv=     1 NCel=       1 NClECP=     1 NCelD=      1
         NCelK=      1 NCelE2=     1 NClLst=     1 CellRange=     0.0.
 One-electron integrals computed using PRISM.
 One-electron integral symmetry used in STVInt
 NBasis=   238 RedAO= T EigKep=  3.83D-06  NBF=   238
 NBsUse=   238 1.00D-06 EigRej= -1.00D+00 NBFU=   238
 Precomputing XC quadrature grid using
 IXCGrd= 4 IRadAn=           5 IRanWt=          -1 IRanGd=           0 AccXCQ= 0.00D+00.
 Generated NRdTot=       0 NPtTot=           0 NUsed=           0 NTot=          32
 NSgBfM=   254   254   254   254   254 MxSgAt=    14 MxSgA2=    14.
 Leave Link  302 at Sat Nov  5 20:18:12 2016, MaxMem=   524288000 cpu:               2.1 elap:               0.3
 (Enter /home/ubuntu/g16/l303.exe)
 DipDrv:  MaxL=1.
 Leave Link  303 at Sat Nov  5 20:18:12 2016, MaxMem=   524288000 cpu:               0.3 elap:               0.0
 (Enter /home/ubuntu/g16/l401.exe)
 ExpMin= 2.97D-02 ExpMax= 1.17D+04 ExpMxC= 4.01D+02 IAcc=3 IRadAn=         5 AccDes= 0.00D+00
 Harris functional with IExCor=  402 and IRadAn=       5 diagonalized for initial guess.
 HarFok:  IExCor=  402 AccDes= 0.00D+00 IRadAn=         5 IDoV= 1 UseB2=F ITyADJ=14
 ICtDFT=  3500011 ScaDFX=  1.000000  1.000000  1.000000  1.000000
 FoFCou: FMM=F IPFlag=           0 FMFlag=      100000 FMFlg1=           0
         NFxFlg=           0 DoJE=T BraDBF=F KetDBF=T FulRan=T
         wScrn=  0.000000 ICntrl=       500 IOpCl=  0 I1Cent=   200000004 NGrid=           0
         NMat0=    1 NMatS0=      1 NMatT0=    0 NMatD0=    1 NMtDS0=    0 NMtDT0=    0
 Petite list used in FoFCou.
 Harris En= -345.477286682808    
 JPrj=0 DoOrth=F DoCkMO=F.
 Initial guess <Sx>= 0.0000 <Sy>= 0.0000 <Sz>= 0.0000 <S**2>=-0.0000 S=-0.0000
 Leave Link  401 at Sat Nov  5 20:18:14 2016, MaxMem=   524288000 cpu:              14.4 elap:               2.1
 (Enter /home/ubuntu/g16/l502.exe)
 Integral symmetry usage will be decided dynamically.
 UHF open shell SCF:
 Using DIIS extrapolation, IDIIS=  1040.
 NGot=   524288000 LenX=   524154720 LenY=   524089763
 Requested convergence on RMS density matrix=1.00D-08 within 128 cycles.
 Requested convergence on MAX density matrix=1.00D-06.
 Requested convergence on             energy=1.00D-06.
 No special actions if energy rises.
 Fock matrices will be formed incrementally for  20 cycles.

 Cycle   1  Pass 1  IDiag  1:
 FoFJK:  IHMeth= 1 ICntrl=       0 DoSepK=F KAlg= 0 I1Cent=           0 FoldK=F
 IRaf= 990000000 NMat=       1 IRICut=       1 DoRegI=T DoRafI=F ISym2E= 0 IDoP0=0 IntGTp=1.
 FoFCou: FMM=F IPFlag=           0 FMFlag=      100000 FMFlg1=           0
         NFxFlg=           0 DoJE=F BraDBF=F KetDBF=F FulRan=T
         wScrn=  0.000000 ICntrl=         0 IOpCl=  1 I1Cent=           0 NGrid=           0
         NMat0=    1 NMatS0=      1 NMatT0=    0 NMatD0=    1 NMtDS0=    0 NMtDT0=    0
 Symmetry not used in FoFCou.
 E= -345.312942417927    
 DIIS: error= 1.93D-02 at cycle   1 NSaved=   1.
 NSaved= 1 IEnMin= 1 EnMin= -345.312942417927     IErMin= 1 ErrMin= 1.93D-02
 ErrMax= 1.93D-02  0.00D+00 EMaxC= 1.00D-01 BMatC= 5.63D-01 BMatP= 5.63D-01
 IDIUse=3 WtCom= 8.07D-01 WtEn= 1.93D-01
 Coeff-Com:  0.100D+01
 Coeff-En:   0.100D+01
 Coeff:      0.100D+01
 Gap=     0.155 Goal=   None    Shift=    0.000
 Gap=     0.155 Goal=   None    Shift=    0.000
 GapD=    0.155 DampG=1.000 DampE=0.500 DampFc=0.5000 IDamp=-1.
 Damping current iteration by 5.00D-01
 RMSDP=2.77D-02 MaxDP=8.84D-01              OVMax= 1.86D-01

 Cycle   2  Pass 1  IDiag  1:
 RMSU=  7.25D-03    CP:  8.42D-01
 E= -345.384859385189     Delta-E=       -0.071916967262 Rises=F Damp=T
 DIIS: error= 4.24D-03 at cycle   2 NSaved=   2.
 NSaved= 2 IEnMin= 2 EnMin= -345.384859385189     IErMin= 2 ErrMin= 4.24D-03
 ErrMax= 4.24D-03  0.00D+00 EMaxC= 1.00D-01 BMatC= 2.72D-02 BMatP= 5.63D-01
 IDIUse=3 WtCom= 9.58D-01 WtEn= 4.24D-02
 Coeff-Com:  0.282D-01 0.972D+00
 Coeff-En:   0.630D-01 0.937D+00
 Coeff:      0.297D-01 0.970D+00
 Gap=     0.226 Goal=   None    Shift=    0.000
 Gap=     0.226 Goal=   None    Shift=    0.000
 RMSDP=1.12D-02 MaxDP=4.66D-01 DE=-7.19D-02 OVMax= 1.16D-01

 Cycle   3  Pass 1  IDiag  1:
 RMSU=  3.98D-03    CP:  7.03D-01  1.27D+00
 E= -345.465817500593     Delta-E=       -0.080958115403 Rises=F Damp=F
 DIIS: error= 3.92D-03 at cycle   3 NSaved=   3.
 NSaved= 3 IEnMin= 3 EnMin= -345.465817500593     IErMin= 3 ErrMin= 3.92D-03
 ErrMax= 3.92D-03  0.00D+00 EMaxC= 1.00D-01 BMatC= 1.97D-02 BMatP= 2.72D-02
 IDIUse=3 WtCom= 9.61D-01 WtEn= 3.92D-02
 Coeff-Com: -0.282D-01 0.455D+00 0.573D+00
 Coeff-En:   0.000D+00 0.000D+00 0.100D+01
 Coeff:     -0.271D-01 0.437D+00 0.590D+00
 Gap=     0.155 Goal=   None    Shift=    0.000
 Gap=     0.155 Goal=   None    Shift=    0.000
 RMSDP=1.48D-03 MaxDP=8.43D-02 DE=-8.10D-02 OVMax= 6.27D-02

 Cycle   4  Pass 1  IDiag  1:
 RMSU=  1.11D-03    CP:  7.06D-01  1.28D+00  7.62D-01
 E= -345.465187365845     Delta-E=        0.000630134748 Rises=F Damp=F
 DIIS: error= 3.80D-03 at cycle   4 NSaved=   4.
 NSaved= 4 IEnMin= 3 EnMin= -345.465817500593     IErMin= 4 ErrMin= 3.80D-03
 ErrMax= 3.80D-03  0.00D+00 EMaxC= 1.00D-01 BMatC= 2.14D-02 BMatP= 1.97D-02
 IDIUse=3 WtCom= 9.62D-01 WtEn= 3.80D-02
 Coeff-Com: -0.289D-01 0.189D+00 0.485D+00 0.355D+00
 Coeff-En:   0.000D+00 0.000D+00 0.521D+00 0.479D+00
 Coeff:     -0.278D-01 0.182D+00 0.486D+00 0.359D+00
 Gap=     0.151 Goal=   None    Shift=    0.000
 Gap=     0.151 Goal=   None    Shift=    0.000
 RMSDP=6.30D-04 MaxDP=2.80D-02 DE= 6.30D-04 OVMax= 4.34D-02

 Cycle   5  Pass 1  IDiag  1:
 RMSU=  4.48D-04    CP:  7.05D-01  1.28D+00  7.80D-01  6.16D-01
 E= -345.471019370080     Delta-E=       -0.005832004236 Rises=F Damp=F
 DIIS: error= 7.42D-04 at cycle   5 NSaved=   5.
 NSaved= 5 IEnMin= 5 EnMin= -345.471019370080     IErMin= 5 ErrMin= 7.42D-04
 ErrMax= 7.42D-04  0.00D+00 EMaxC= 1.00D-01 BMatC= 9.21D-04 BMatP= 1.97D-02
 IDIUse=3 WtCom= 9.93D-01 WtEn= 7.42D-03
 Coeff-Com: -0.150D-01 0.657D-01 0.236D+00 0.224D+00 0.489D+00
 Coeff-En:   0.000D+00 0.000D+00 0.000D+00 0.000D+00 0.100D+01
 Coeff:     -0.149D-01 0.652D-01 0.235D+00 0.223D+00 0.492D+00
 Gap=     0.149 Goal=   None    Shift=    0.000
 Gap=     0.149 Goal=   None    Shift=    0.000
 RMSDP=2.44D-04 MaxDP=1.20D-02 DE=-5.83D-03 OVMax= 8.70D-03

 Cycle   6  Pass 1  IDiag  1:
 RMSU=  1.61D-04    CP:  7.05D-01  1.28D+00  8.05D-01  5.77D-01  6.71D-01
 E= -345.471230731049     Delta-E=       -0.000211360968 Rises=F Damp=F
 DIIS: error= 3.38D-04 at cycle   6 NSaved=   6.
 NSaved= 6 IEnMin= 6 EnMin= -345.471230731049     IErMin= 6 ErrMin= 3.38D-04
 ErrMax= 3.38D-04  0.00D+00 EMaxC= 1.00D-01 BMatC= 1.52D-04 BMatP= 9.21D-04
 IDIUse=3 WtCom= 9.97D-01 WtEn= 3.38D-03
 Coeff-Com: -0.468D-02 0.972D-02 0.663D-01 0.820D-01 0.325D+00 0.522D+00
 Coeff-En:   0.000D+00 0.000D+00 0.000D+00 0.000D+00 0.162D+00 0.838D+00
 Coeff:     -0.467D-02 0.969D-02 0.660D-01 0.817D-01 0.324D+00 0.523D+00
 Gap=     0.150 Goal=   None    Shift=    0.000
 Gap=     0.150 Goal=   None    Shift=    0.000
 RMSDP=7.39D-05 MaxDP=3.57D-03 DE=-2.11D-04 OVMax= 2.73D-03

 Cycle   7  Pass 1  IDiag  1:
 RMSU=  3.49D-05    CP:  7.04D-01  1.28D+00  8.00D-01  5.92D-01  7.11D-01
                    CP:  6.63D-01
 E= -345.471270244687     Delta-E=       -0.000039513639 Rises=F Damp=F
 DIIS: error= 6.94D-05 at cycle   7 NSaved=   7.
 NSaved= 7 IEnMin= 7 EnMin= -345.471270244687     IErMin= 7 ErrMin= 6.94D-05
 ErrMax= 6.94D-05  0.00D+00 EMaxC= 1.00D-01 BMatC= 7.81D-06 BMatP= 1.52D-04
 IDIUse=1 WtCom= 1.00D+00 WtEn= 0.00D+00
 Coeff-Com: -0.178D-02 0.141D-02 0.235D-01 0.332D-01 0.156D+00 0.296D+00
 Coeff-Com:  0.492D+00
 Coeff:     -0.178D-02 0.141D-02 0.235D-01 0.332D-01 0.156D+00 0.296D+00
 Coeff:      0.492D+00
 Gap=     0.150 Goal=   None    Shift=    0.000
 Gap=     0.150 Goal=   None    Shift=    0.000
 RMSDP=1.41D-05 MaxDP=6.18D-04 DE=-3.95D-05 OVMax= 5.04D-04

 Cycle   8  Pass 1  IDiag  1:
 RMSU=  1.12D-05    CP:  7.04D-01  1.28D+00  8.00D-01  5.92D-01  7.13D-01
                    CP:  6.80D-01  8.12D-01
 E= -345.471272117599     Delta-E=       -0.000001872912 Rises=F Damp=F
 DIIS: error= 1.09D-05 at cycle   8 NSaved=   8.
 NSaved= 8 IEnMin= 8 EnMin= -345.471272117599     IErMin= 8 ErrMin= 1.09D-05
 ErrMax= 1.09D-05  0.00D+00 EMaxC= 1.00D-01 BMatC= 2.33D-07 BMatP= 7.81D-06
 IDIUse=1 WtCom= 1.00D+00 WtEn= 0.00D+00
 Coeff-Com: -0.217D-03-0.478D-03 0.346D-02 0.555D-02 0.329D-01 0.707D-01
 Coeff-Com:  0.192D+00 0.696D+00
 Coeff:     -0.217D-03-0.478D-03 0.346D-02 0.555D-02 0.329D-01 0.707D-01
 Coeff:      0.192D+00 0.696D+00
 Gap=     0.150 Goal=   None    Shift=    0.000
 Gap=     0.150 Goal=   None    Shift=    0.000
 RMSDP=3.75D-06 MaxDP=1.54D-04 DE=-1.87D-06 OVMax= 1.29D-04

 Cycle   9  Pass 1  IDiag  1:
 RMSU=  2.72D-06    CP:  7.04D-01  1.28D+00  8.00D-01  5.92D-01  7.13D-01
                    CP:  6.79D-01  8.30D-01  7.91D-01
 E= -345.471272168856     Delta-E=       -0.000000051257 Rises=F Damp=F
 DIIS: error= 5.00D-06 at cycle   9 NSaved=   9.
 NSaved= 9 IEnMin= 9 EnMin= -345.471272168856     IErMin= 9 ErrMin= 5.00D-06
 ErrMax= 5.00D-06  0.00D+00 EMaxC= 1.00D-01 BMatC= 4.22D-08 BMatP= 2.33D-07
 IDIUse=1 WtCom= 1.00D+00 WtEn= 0.00D+00
 Coeff-Com:  0.938D-05-0.323D-03 0.333D-03 0.761D-03 0.738D-02 0.191D-01
 Coeff-Com:  0.711D-01 0.379D+00 0.523D+00
 Coeff:      0.938D-05-0.323D-03 0.333D-03 0.761D-03 0.738D-02 0.191D-01
 Coeff:      0.711D-01 0.379D+00 0.523D+00
 Gap=     0.150 Goal=   None    Shift=    0.000
 Gap=     0.150 Goal=   None    Shift=    0.000
 RMSDP=1.40D-06 MaxDP=6.89D-05 DE=-5.13D-08 OVMax= 4.28D-05

 Cycle  10  Pass 1  IDiag  1:
 RMSU=  1.15D-06    CP:  7.04D-01  1.28D+00  8.00D-01  5.92D-01  7.13D-01
                    CP:  6.79D-01  8.23D-01  8.29D-01  7.99D-01
 E= -345.471272179470     Delta-E=       -0.000000010614 Rises=F Damp=F
 DIIS: error= 1.92D-06 at cycle  10 NSaved=  10.
 NSaved=10 IEnMin=10 EnMin= -345.471272179470     IErMin=10 ErrMin= 1.92D-06
 ErrMax= 1.92D-06  0.00D+00 EMaxC= 1.00D-01 BMatC= 3.78D-09 BMatP= 4.22D-08
 IDIUse=1 WtCom= 1.00D+00 WtEn= 0.00D+00
 Coeff-Com:  0.382D-04-0.803D-04-0.325D-03-0.459D-03-0.141D-02-0.139D-02
 Coeff-Com:  0.357D-02 0.751D-01 0.257D+00 0.667D+00
 Coeff:      0.382D-04-0.803D-04-0.325D-03-0.459D-03-0.141D-02-0.139D-02
 Coeff:      0.357D-02 0.751D-01 0.257D+00 0.667D+00
 Gap=     0.150 Goal=   None    Shift=    0.000
 Gap=     0.150 Goal=   None    Shift=    0.000
 RMSDP=4.63D-07 MaxDP=1.73D-05 DE=-1.06D-08 OVMax= 2.34D-05

 Cycle  11  Pass 1  IDiag  1:
 RMSU=  2.83D-07    CP:  7.04D-01  1.28D+00  8.00D-01  5.92D-01  7.13D-01
                    CP:  6.79D-01  8.27D-01  8.28D-01  8.45D-01  7.96D-01
 E= -345.471272180418     Delta-E=       -0.000000000949 Rises=F Damp=F
 DIIS: error= 7.84D-07 at cycle  11 NSaved=  11.
 NSaved=11 IEnMin=11 EnMin= -345.471272180418     IErMin=11 ErrMin= 7.84D-07
 ErrMax= 7.84D-07  0.00D+00 EMaxC= 1.00D-01 BMatC= 5.93D-10 BMatP= 3.78D-09
 IDIUse=1 WtCom= 1.00D+00 WtEn= 0.00D+00
 Coeff-Com:  0.223D-04-0.344D-04-0.210D-03-0.308D-03-0.122D-02-0.172D-02
 Coeff-Com: -0.234D-02 0.197D-01 0.109D+00 0.393D+00 0.485D+00
 Coeff:      0.223D-04-0.344D-04-0.210D-03-0.308D-03-0.122D-02-0.172D-02
 Coeff:     -0.234D-02 0.197D-01 0.109D+00 0.393D+00 0.485D+00
 Gap=     0.150 Goal=   None    Shift=    0.000
 Gap=     0.150 Goal=   None    Shift=    0.000
 RMSDP=1.68D-07 MaxDP=9.49D-06 DE=-9.49D-10 OVMax= 3.98D-06

 Cycle  12  Pass 1  IDiag  1:
 RMSU=  1.09D-07    CP:  7.04D-01  1.28D+00  8.00D-01  5.92D-01  7.13D-01
                    CP:  6.79D-01  8.27D-01  8.30D-01  8.35D-01  8.24D-01
                    CP:  8.01D-01
 E= -345.471272180557     Delta-E=       -0.000000000138 Rises=F Damp=F
 DIIS: error= 1.34D-07 at cycle  12 NSaved=  12.
 NSaved=12 IEnMin=12 EnMin= -345.471272180557     IErMin=12 ErrMin= 1.34D-07
 ErrMax= 1.34D-07  0.00D+00 EMaxC= 1.00D-01 BMatC= 2.46D-11 BMatP= 5.93D-10
 IDIUse=1 WtCom= 1.00D+00 WtEn= 0.00D+00
 Coeff-Com:  0.307D-05 0.228D-06-0.324D-04-0.598D-04-0.302D-03-0.459D-03
 Coeff-Com: -0.196D-02-0.494D-02-0.456D-02 0.536D-01 0.148D+00 0.811D+00
 Coeff:      0.307D-05 0.228D-06-0.324D-04-0.598D-04-0.302D-03-0.459D-03
 Coeff:     -0.196D-02-0.494D-02-0.456D-02 0.536D-01 0.148D+00 0.811D+00
 Gap=     0.150 Goal=   None    Shift=    0.000
 Gap=     0.150 Goal=   None    Shift=    0.000
 RMSDP=4.32D-08 MaxDP=1.52D-06 DE=-1.38D-10 OVMax= 1.11D-06

 Cycle  13  Pass 1  IDiag  1:
 RMSU=  3.18D-08    CP:  7.04D-01  1.28D+00  8.00D-01  5.92D-01  7.13D-01
                    CP:  6.79D-01  8.27D-01  8.30D-01  8.36D-01  8.41D-01
                    CP:  8.19D-01  9.70D-01
 E= -345.471272180578     Delta-E=       -0.000000000022 Rises=F Damp=F
 DIIS: error= 5.72D-08 at cycle  13 NSaved=  13.
 NSaved=13 IEnMin=13 EnMin= -345.471272180578     IErMin=13 ErrMin= 5.72D-08
 ErrMax= 5.72D-08  0.00D+00 EMaxC= 1.00D-01 BMatC= 2.86D-12 BMatP= 2.46D-11
 IDIUse=1 WtCom= 1.00D+00 WtEn= 0.00D+00
 Coeff-Com:  0.754D-06 0.122D-05-0.684D-05-0.174D-04-0.936D-04-0.133D-03
 Coeff-Com: -0.815D-03-0.281D-02-0.607D-02 0.157D-01 0.553D-01 0.400D+00
 Coeff-Com:  0.539D+00
 Coeff:      0.754D-06 0.122D-05-0.684D-05-0.174D-04-0.936D-04-0.133D-03
 Coeff:     -0.815D-03-0.281D-02-0.607D-02 0.157D-01 0.553D-01 0.400D+00
 Coeff:      0.539D+00
 Gap=     0.150 Goal=   None    Shift=    0.000
 Gap=     0.150 Goal=   None    Shift=    0.000
 RMSDP=1.07D-08 MaxDP=4.35D-07 DE=-2.16D-11 OVMax= 5.13D-07

 Cycle  14  Pass 1  IDiag  1:
 RMSU=  8.50D-09    CP:  7.04D-01  1.28D+00  8.00D-01  5.92D-01  7.13D-01
                    CP:  6.79D-01  8.27D-01  8.31D-01  8.35D-01  8.39D-01
                    CP:  8.21D-01  9.80D-01  9.79D-01
 E= -345.471272180575     Delta-E=        0.000000000004 Rises=F Damp=F
 DIIS: error= 2.48D-08 at cycle  14 NSaved=  14.
 NSaved=14 IEnMin=13 EnMin= -345.471272180578     IErMin=14 ErrMin= 2.48D-08
 ErrMax= 2.48D-08  0.00D+00 EMaxC= 1.00D-01 BMatC= 5.14D-13 BMatP= 2.86D-12
 IDIUse=1 WtCom= 1.00D+00 WtEn= 0.00D+00
 Coeff-Com: -0.206D-06 0.400D-06 0.274D-05 0.306D-05 0.132D-04 0.190D-04
 Coeff-Com: -0.176D-04-0.496D-03-0.241D-02-0.309D-02-0.722D-02 0.546D-02
 Coeff-Com:  0.300D+00 0.708D+00
 Coeff:     -0.206D-06 0.400D-06 0.274D-05 0.306D-05 0.132D-04 0.190D-04
 Coeff:     -0.176D-04-0.496D-03-0.241D-02-0.309D-02-0.722D-02 0.546D-02
 Coeff:      0.300D+00 0.708D+00
 Gap=     0.150 Goal=   None    Shift=    0.000
 Gap=     0.150 Goal=   None    Shift=    0.000
 RMSDP=4.72D-09 MaxDP=2.02D-07 DE= 3.87D-12 OVMax= 2.01D-07

 SCF Done:  E(UB3LYP) =  -345.471272181     A.U. after   14 cycles
            NFock= 14  Conv=0.47D-08     -V/T= 2.0065
 <Sx>= 0.0000 <Sy>= 0.0000 <Sz>= 0.0000 <S**2>=-0.0000 S=-0.0000
 <L.S>= 0.000000000000E+00
 KE= 3.432549791527D+02 PE=-1.455338457604D+03 EE= 4.405426731948D+02
 Annihilation of the first spin contaminant:
 S**2 before annihilation    -0.0000,   after    -0.0000
 Leave Link  502 at Sat Nov  5 20:20:07 2016, MaxMem=   524288000 cpu:             792.4 elap:             113.2
 (Enter /home/ubuntu/g16/l601.exe)
 Copying SCF densities to generalized density rwf, IOpCl= 1 IROHF=0.

 **********************************************************************

            Population analysis using the SCF density.

 **********************************************************************

 Orbital symmetries:
 Alpha Orbitals:
       Occupied  (A) (A) (A) (A) (A) (A) (A) (A) (A) (A) (A) (A)
                 (A) (A) (A) (A) (A) (A) (A) (A) (A) (A) (A) (A)
                 (A) (A) (A) (A)
       Virtual   (A) (A) (A) (A) (A) (A) (A) (A) (A) (A) (A) (A)
                 (A) (A) (A) (A) (A) (A) (A) (A) (A) (A) (A) (A)
                 (A) (A) (A) (A) (A) (A) (A) (A) (A) (A) (A) (A)
                 (A) (A) (A) (A) (A) (A) (A) (A) (A) (A) (A) (A)
                 (A) (A) (A) (A) (A) (A) (A) (A) (A) (A) (A) (A)
                 (A) (A) (A) (A) (A) (A) (A) (A) (A) (A) (A) (A)
                 (A) (A) (A) (A) (A) (A) (A) (A) (A) (A) (A) (A)
                 (A) (A) (A) (A) (A) (A) (A) (A) (A) (A) (A) (A)
                 (A) (A) (A) (A) (A) (A) (A) (A) (A) (A) (A) (A)
                 (A) (A) (A) (A) (A) (A) (A) (A) (A) (A) (A) (A)
                 (A) (A) (A) (A) (A) (A) (A) (A) (A) (A) (A) (A)
                 (A) (A) (A) (A) (A) (A) (A) (A) (A) (A) (A) (A)
                 (A) (A) (A) (A) (A) (A) (A) (A) (A) (A) (A) (A)
                 (A) (A) (A) (A) (A) (A) (A) (A) (A) (A) (A) (A)
                 (A) (A) (A) (A) (A) (A) (A) (A) (A) (A) (A) (A)
                 (A) (A) (A) (A) (A) (A) (A) (A) (A) (A) (A) (A)
                 (A) (A) (A) (A) (A) (A) (A) (A) (A) (A) (A) (A)
                 (A) (A) (A) (A) (A) (A)
 Beta  Orbitals:
       Occupied  (A) (A) (A) (A) (A) (A) (A) (A) (A) (A) (A) (A)
                 (A) (A) (A) (A) (A) (A) (A) (A) (A) (A) (A) (A)
                 (A) (A) (A) (A)
       Virtual   (A) (A) (A) (A) (A) (A) (A) (A) (A) (A) (A) (A)
                 (A) (A) (A) (A) (A) (A) (A) (A) (A) (A) (A) (A)
                 (A) (A) (A) (A) (A) (A) (A) (A) (A) (A) (A) (A)
                 (A) (A) (A) (A) (A) (A) (A) (A) (A) (A) (A) (A)
                 (A) (A) (A) (A) (A) (A) (A) (A) (A) (A) (A) (A)
                 (A) (A) (A) (A) (A) (A) (A) (A) (A) (A) (A) (A)
                 (A) (A) (A) (A) (A) (A) (A) (A) (A) (A) (A) (A)
                 (A) (A) (A) (A) (A) (A) (A) (A) (A) (A) (A) (A)
                 (A) (A) (A) (A) (A) (A) (A) (A) (A) (A) (A) (A)
                 (A) (A) (A) (A) (A) (A) (A) (A) (A) (A) (A) (A)
                 (A) (A) (A) (A) (A) (A) (A) (A) (A) (A) (A) (A)
                 (A) (A) (A) (A) (A) (A) (A) (A) (A) (A) (A) (A)
                 (A) (A) (A) (A) (A) (A) (A) (A) (A) (A) (A) (A)
                 (A) (A) (A) (A) (A) (A) (A) (A) (A) (A) (A) (A)
                 (A) (A) (A) (A) (A) (A) (A) (A) (A) (A) (A) (A)
                 (A) (A) (A) (A) (A) (A) (A) (A) (A) (A) (A) (A)
                 (A) (A) (A) (A) (A) (A) (A) (A) (A) (A) (A) (A)
                 (A) (A) (A) (A) (A) (A)
 The electronic state is 1-A.
     Natural Orbital Coefficients:
                           1         2         3         4         5
     Eigenvalues --     2.00000   2.00000   2.00000   2.00000   2.00000
   1 1   C  1S         -0.26287  -0.03383  -0.03035  -0.05797  -0.09356
   2        2S          0.29659   0.03040  -0.00230  -0.00726   0.03551
   3        3S          0.43798   0.04326   0.01228  -0.03594   0.12050
   4        4S         -0.17371  -0.02163   0.00030   0.12837  -0.12898
   5        5PX        -0.06032   0.00458  -0.01459   0.14800  -0.15247
   6        5PY        -0.02665  -0.00980   0.00221  -0.00357  -0.00700
   7        5PZ        -0.01656   0.27844  -0.00700   0.24461   0.09149
   8        6PX        -0.06657   0.00083  -0.01355   0.11634  -0.12663
   9        6PY         0.22787   0.01761  -0.00818  -0.13329   0.13487
  10        6PZ        -0.01093   0.17176   0.00435   0.11002   0.03942
  11        7PX         0.11559   0.00486  -0.00004  -0.01567   0.02534
  12        7PY        -0.28026   0.01385  -0.02099   0.02838  -0.05363
  13        7PZ        -0.00218   0.02999   0.00433   0.00809   0.00450
  14        8D 0       -0.00701  -0.00120   0.00042  -0.00047   0.00162
  15        8D+1       -0.00026  -0.00456  -0.00426  -0.01177  -0.00347
  16        8D-1        0.00174  -0.00278   0.02562  -0.00410  -0.00602
  17        8D+2       -0.00440   0.00056  -0.00036  -0.00454   0.00300
  18        8D-2       -0.00074  -0.00194   0.00045  -0.00477   0.00806
  19        9D 0        0.00393   0.00009   0.00062  -0.00622   0.00493
  20        9D+1       -0.00045   0.00141  -0.00270  -0.00197  -0.00001
  21        9D-1        0.00072  -0.00299   0.00132   0.00194  -0.00053
  22        9D+2       -0.00110   0.00109  -0.00046  -0.01423   0.00951
  23        9D-2       -0.03178  -0.00094  -0.00001   0.02535  -0.02879
  24 2   C  1S         -0.12587   0.01298   0.04395  -0.01867   0.14093
  25        2S          0.15915   0.03311  -0.02472   0.05731  -0.05522
  26        3S          0.17232   0.04124  -0.05047   0.06942  -0.11663
  27        4S          0.15667   0.02875  -0.00741  -0.05248   0.04736
  28        5PX         0.06914   0.02176   0.00387   0.06030  -0.05061
  29        5PY         0.13013  -0.00545   0.02286  -0.11681   0.16170
  30        5PZ        -0.01947   0.13545  -0.24272   0.23646   0.12822
  31        6PX         0.06187   0.01051  -0.00019  -0.03917   0.03187
  32        6PY         0.00451  -0.01693   0.00833  -0.13116   0.12144
  33        6PZ        -0.01217   0.07482  -0.13808   0.10714   0.06410
  34        7PX        -0.25591   0.00763  -0.01714   0.03516  -0.05631
  35        7PY        -0.16937   0.00680  -0.01037   0.00402  -0.02290
  36        7PZ        -0.00309   0.01742  -0.02267   0.00513   0.00590
  37        8D 0       -0.00902  -0.00093   0.00037  -0.00057   0.00018
  38        8D+1       -0.00068   0.01659   0.01266  -0.00440  -0.00388
  39        8D-1       -0.00084   0.01734   0.00427   0.01132   0.00339
  40        8D+2       -0.01175  -0.00061  -0.00192   0.01143  -0.01311
  41        8D-2        0.01140   0.00184  -0.00022   0.00286  -0.00309
  42        9D 0       -0.00501  -0.00125   0.00129  -0.00347   0.00668
  43        9D+1        0.00017   0.00155  -0.00180   0.00192   0.00024
  44        9D-1        0.00021  -0.00133   0.00034   0.00429   0.00186
  45        9D+2        0.01237   0.00363   0.00097   0.01041  -0.00922
  46        9D-2        0.03711   0.00539  -0.00215  -0.00165   0.00046
  47 3   C  1S         -0.05348   0.00262   0.01513   0.01154  -0.01875
  48        2S          0.09043  -0.00070   0.00653   0.03917  -0.05330
  49        3S         -0.10768  -0.03451   0.01718   0.15445  -0.15043
  50        4S         -0.36057  -0.02534  -0.06990   0.23596  -0.25413
  51        5PX        -0.03611   0.00750  -0.02943  -0.00821  -0.01609
  52        5PY        -0.07497  -0.00515  -0.02916   0.12059  -0.10299
  53        5PZ         0.00395  -0.19021  -0.24365   0.15321   0.10100
  54        6PX         0.04748   0.00164   0.00232  -0.13529   0.15577
  55        6PY         0.05036  -0.01252   0.03142   0.03814  -0.00379
  56        6PZ         0.00492  -0.13222  -0.15968   0.07492   0.04989
  57        7PX        -0.23551   0.00893  -0.00824   0.01662  -0.04913
  58        7PY         0.00580  -0.00412  -0.00424   0.02543  -0.02439
  59        7PZ         0.00010  -0.02202  -0.01683   0.00535   0.00558
  60        8D 0       -0.00401  -0.00010  -0.00009  -0.00119   0.00119
  61        8D+1       -0.00143   0.01313  -0.01490   0.00985   0.00529
  62        8D-1        0.00057  -0.00896  -0.00141   0.00781   0.00396
  63        8D+2       -0.00113   0.00161  -0.00187   0.00367  -0.00436
  64        8D-2        0.00763  -0.00054   0.00099  -0.01271   0.01284
  65        9D 0       -0.00053   0.00067  -0.00014   0.00307  -0.00479
  66        9D+1        0.00012  -0.00024  -0.00792   0.00719   0.00340
  67        9D-1        0.00178  -0.00520  -0.00617   0.00026  -0.00297
  68        9D+2       -0.00831  -0.00134   0.00282  -0.02806   0.01160
  69        9D-2        0.01821   0.00280  -0.00563  -0.01469   0.02932
  70 4   C  1S          0.01689   0.01819  -0.05629  -0.19009  -0.48469
  71        2S          0.04632   0.00116  -0.00978   0.03553  -0.07159
  72        3S         -0.20028  -0.01348   0.01112   0.07785   0.05033
  73        4S          0.48096   0.00826   0.06068  -0.12748   0.12326
  74        5PX        -0.02963  -0.00904  -0.01503   0.12963  -0.14793
  75        5PY         0.00196  -0.00506  -0.01563  -0.06571   0.03154
  76        5PZ         0.01861  -0.24076   0.09467   0.06115   0.03050
  77        6PX        -0.07406  -0.01213  -0.02075   0.05553  -0.01510
  78        6PY        -0.19484  -0.03256   0.04035   0.13468  -0.05948
  79        6PZ         0.01100  -0.15246   0.05022   0.02956   0.01812
  80        7PX         0.03672   0.01397   0.01118  -0.09086   0.12424
  81        7PY         0.28767  -0.02655  -0.00583   0.04865  -0.01602
  82        7PZ         0.00533  -0.04694  -0.02410  -0.00052  -0.00583
  83        8D 0       -0.00628  -0.00100   0.00017   0.00383  -0.00447
  84        8D+1        0.00349  -0.02953  -0.01252   0.01623   0.00419
  85        8D-1        0.00272  -0.00992   0.02227   0.00232  -0.00439
  86        8D+2       -0.00945   0.00234  -0.00030  -0.00818   0.00991
  87        8D-2       -0.00011   0.00291   0.00000  -0.00344   0.00021
  88        9D 0       -0.01192  -0.00229  -0.00030   0.00514  -0.00572
  89        9D+1       -0.00067  -0.00432   0.00970   0.00718   0.00599
  90        9D-1        0.00133  -0.00815   0.01012  -0.00150  -0.00325
  91        9D+2       -0.00014   0.00277  -0.01457   0.00538  -0.06977
  92        9D-2       -0.05420  -0.01204   0.00697   0.08867  -0.07154
  93 5   O  1S          0.01750   0.01278   0.01317   0.01901  -0.01635
  94        2S         -0.00705  -0.00203  -0.00401  -0.04211   0.15603
  95        3S         -0.01827  -0.00606  -0.00547  -0.04507   0.19073
  96        4S         -0.05184   0.00479  -0.00954  -0.03145   0.07961
  97        5PX         0.05423   0.02043   0.01361  -0.07584   0.04194
  98        5PY        -0.02213   0.00853  -0.01052  -0.05127   0.05958
  99        5PZ        -0.04916   0.38038   0.16208  -0.16219  -0.02068
 100        6PX         0.02103   0.00856   0.00441  -0.03088   0.02123
 101        6PY        -0.01457   0.00675  -0.00536  -0.02674   0.02952
 102        6PZ        -0.03473   0.27190   0.10994  -0.11195  -0.01434
 103        7PX        -0.02658  -0.00144  -0.00682   0.00722  -0.00635
 104        7PY        -0.00627   0.00343   0.00377  -0.01859   0.02020
 105        7PZ        -0.01321   0.10435   0.04055  -0.02411   0.00371
 106        8D 0       -0.00036  -0.00008   0.00001   0.00141  -0.00373
 107        8D+1       -0.00010  -0.00207   0.00452   0.00082   0.00137
 108        8D-1       -0.00061   0.00540   0.00254  -0.00387  -0.00137
 109        8D+2        0.00181  -0.00028   0.00063   0.00014   0.00054
 110        8D-2        0.00277   0.00055   0.00023  -0.00434   0.00194
 111        9D 0        0.00123   0.00084  -0.00023  -0.00265   0.00420
 112        9D+1        0.00002  -0.00381   0.00691   0.00258   0.00216
 113        9D-1       -0.00055   0.00579  -0.00137  -0.00750  -0.00363
 114        9D+2        0.00181  -0.00266   0.00015   0.00790  -0.00618
 115        9D-2        0.00078   0.00005  -0.00154   0.00067   0.00027
 116 6   C  1S         -0.02077   0.00038   0.00551   0.01302   0.07416
 117        2S         -0.06641  -0.00380   0.00701   0.03866  -0.00436
 118        3S         -0.00778  -0.00897   0.00327   0.01807  -0.01645
 119        4S          0.00621  -0.01098   0.00571  -0.02308   0.03380
 120        5PX        -0.00901   0.01827  -0.01795  -0.01041   0.04843
 121        5PY         0.00306   0.02147   0.00546   0.00454  -0.02607
 122        5PZ         0.01420  -0.03915  -0.15190  -0.09232  -0.08396
 123        6PX        -0.01499  -0.00896   0.00099   0.02533  -0.01490
 124        6PY         0.00419  -0.00439   0.00568  -0.00227  -0.01768
 125        6PZ         0.00108  -0.00593   0.00216   0.01321   0.00459
 126        7PX         0.01048  -0.01154   0.00704  -0.00100   0.00437
 127        7PY         0.00616  -0.00607   0.00246   0.00677  -0.00988
 128        7PZ         0.00273  -0.02276  -0.00044   0.01263   0.00324
 129        8D 0        0.00108   0.00105   0.00032   0.00135  -0.00523
 130        8D+1       -0.00122   0.01070   0.00482  -0.00597  -0.00184
 131        8D-1        0.00321  -0.02280  -0.01431   0.00343  -0.00291
 132        8D+2        0.00203  -0.00020   0.00056  -0.00383   0.00190
 133        8D-2        0.00427  -0.00063   0.00173   0.00116  -0.00825
 134        9D 0        0.00150  -0.00617   0.00158   0.00310  -0.00460
 135        9D+1       -0.00107   0.00387   0.01692   0.01149   0.00918
 136        9D-1       -0.00093  -0.00151   0.01870   0.01162   0.00955
 137        9D+2       -0.00728   0.00140  -0.00166   0.00404   0.00172
 138        9D-2        0.00449   0.00554  -0.00315  -0.01273   0.01483
 139 7   C  1S         -0.00738  -0.00155   0.04615  -0.09708  -0.00566
 140        2S          0.13480   0.02104  -0.03745   0.05078  -0.10600
 141        3S          0.04080   0.04069  -0.07656   0.02700  -0.15318
 142        4S         -0.59680  -0.02681   0.04083   0.04503  -0.10717
 143        5PX        -0.07795   0.05351  -0.01123   0.07110  -0.15381
 144        5PY         0.06752  -0.00129  -0.00116   0.01284   0.02310
 145        5PZ         0.04380  -0.24599   0.30089   0.12434  -0.01171
 146        6PX        -0.03982  -0.02199   0.00011   0.09126   0.03516
 147        6PY        -0.18499  -0.01948   0.02208   0.14499  -0.04878
 148        6PZ         0.02617  -0.14811   0.17389   0.06060  -0.01210
 149        7PX         0.13537  -0.04500   0.02546   0.04010  -0.04426
 150        7PY         0.18341  -0.00295   0.02378  -0.01415   0.00968
 151        7PZ         0.00417  -0.03296   0.04078   0.00620  -0.00018
 152        8D 0       -0.00396  -0.00019   0.00091  -0.00035   0.00182
 153        8D+1        0.00057   0.00803   0.01160   0.00910   0.00073
 154        8D-1       -0.00072   0.01166  -0.00140  -0.00218  -0.00176
 155        8D+2        0.00379   0.00283  -0.00000  -0.00325   0.00028
 156        8D-2       -0.01206   0.00062   0.00002   0.00197  -0.00660
 157        9D 0       -0.00254   0.00351  -0.00088  -0.00059  -0.00537
 158        9D+1       -0.00148   0.01280   0.00323   0.00433   0.00298
 159        9D-1       -0.00064   0.00199   0.01089  -0.00211   0.00084
 160        9D+2       -0.07182  -0.02002   0.00148   0.05262  -0.00344
 161        9D-2        0.08737  -0.01232  -0.01676   0.02866  -0.02571
 162 8   C  1S         -0.00982  -0.03765  -0.01250  -0.06277   0.22700
 163        2S          0.05433   0.01523  -0.00186   0.03582  -0.09161
 164        3S         -0.01590   0.06414  -0.00218  -0.00141  -0.18951
 165        4S          0.52199   0.07671  -0.03958  -0.15172   0.21180
 166        5PX         0.04113  -0.04647   0.02847  -0.06467   0.13311
 167        5PY        -0.19374  -0.04280   0.01268   0.06408  -0.07156
 168        5PZ         0.01900   0.07788   0.29110   0.19269   0.01666
 169        6PX        -0.10573  -0.04320  -0.00604   0.10628  -0.01045
 170        6PY         0.09998   0.01117   0.00058  -0.08797   0.12699
 171        6PZ         0.01025   0.04429   0.16661   0.09232   0.00074
 172        7PX         0.15727  -0.02124   0.02638  -0.02010   0.03414
 173        7PY        -0.11857  -0.00336  -0.00866   0.02131  -0.01839
 174        7PZ         0.00077   0.01733   0.01707   0.00243  -0.00459
 175        8D 0       -0.00713  -0.00071   0.00033  -0.00009   0.00117
 176        8D+1       -0.00269   0.02091  -0.01527   0.00019   0.00294
 177        8D-1        0.00015  -0.00943  -0.00367  -0.01302  -0.00417
 178        8D+2        0.00181   0.00261  -0.00309   0.01138  -0.01480
 179        8D-2       -0.01837  -0.00027  -0.00052   0.00276  -0.00863
 180        9D 0       -0.00304  -0.00147  -0.00004   0.00218  -0.00018
 181        9D+1       -0.00212   0.01380   0.00191   0.00015   0.00271
 182        9D-1        0.00024   0.00247   0.00467  -0.00185  -0.00150
 183        9D+2       -0.00644  -0.00225   0.00913  -0.03443   0.01701
 184        9D-2        0.11557   0.00532  -0.00130  -0.04284   0.05239
 185 9   H  1S          0.12170  -0.00213   0.03628  -0.08903   0.07696
 186        2S          0.14407  -0.00918   0.06268  -0.15434   0.15047
 187        3S         -0.01019  -0.00186  -0.00124   0.00247  -0.00399
 188        4PX         0.00346   0.00045   0.00008  -0.00216   0.00099
 189        4PY         0.00797   0.00014   0.00141  -0.00066   0.00018
 190        4PZ         0.00009  -0.00667  -0.00900   0.00523   0.00356
 191        5PX         0.01571   0.00008   0.00440  -0.01034   0.01314
 192        5PY         0.03368  -0.00159   0.01300  -0.03069   0.03262
 193        5PZ         0.00085  -0.00807  -0.01145   0.00194   0.00026
 194 10  H  1S         -0.01984  -0.02413   0.01591   0.01542  -0.02383
 195        2S         -0.01048  -0.04002   0.01879   0.03189  -0.06379
 196        3S          0.01542  -0.01063   0.00433  -0.00008   0.00363
 197        4PX        -0.00320  -0.00085   0.00055   0.00151  -0.00034
 198        4PY        -0.00194  -0.00005   0.00057   0.00123  -0.00134
 199        4PZ         0.00044  -0.00119  -0.00480  -0.00287  -0.00262
 200        5PX        -0.00678  -0.00771   0.00313   0.01108  -0.01759
 201        5PY         0.00184  -0.00218   0.00228  -0.00216  -0.00134
 202        5PZ        -0.00008  -0.00055   0.00452   0.00392   0.00283
 203 11  H  1S         -0.04576   0.08911   0.12563   0.07071   0.04542
 204        2S         -0.04285   0.09879   0.13324   0.08172   0.06762
 205        3S         -0.00646  -0.01211   0.01099   0.00850   0.00332
 206        4PX         0.00048   0.00195  -0.00103  -0.00071   0.00111
 207        4PY         0.00248  -0.00054  -0.00468  -0.00375  -0.00254
 208        4PZ        -0.00314  -0.00029   0.00159   0.00310  -0.00011
 209        5PX        -0.00110  -0.00209  -0.00261   0.00714  -0.00300
 210        5PY         0.00251   0.00107  -0.01095  -0.01377  -0.00835
 211        5PZ        -0.00729   0.00143   0.01785   0.01875   0.01401
 212 12  H  1S         -0.01281  -0.07124  -0.11799  -0.02729  -0.07141
 213        2S         -0.01091  -0.05235  -0.14747  -0.05256  -0.06648
 214        3S         -0.00970   0.02076  -0.00805  -0.01181  -0.00461
 215        4PX         0.00084  -0.00103   0.00007   0.00018   0.00117
 216        4PY         0.00173   0.00092   0.00426   0.00191   0.00228
 217        4PZ         0.00318  -0.00112   0.00080  -0.00090   0.00159
 218        5PX        -0.00154   0.00277   0.00319  -0.00238  -0.00773
 219        5PY         0.00225  -0.00979   0.01317   0.01127   0.00756
 220        5PZ         0.00582  -0.00605   0.02134   0.01191   0.00813
 221 13  H  1S          0.17490  -0.01866  -0.01667  -0.00377   0.05201
 222        2S          0.35449  -0.05073  -0.02863  -0.01428   0.11414
 223        3S          0.01497  -0.01140  -0.00417  -0.00310   0.01609
 224        4PX         0.00605   0.00072  -0.00137   0.00201  -0.00271
 225        4PY        -0.00791   0.00048   0.00112  -0.00028  -0.00062
 226        4PZ         0.00170  -0.00942   0.01051   0.00402  -0.00081
 227        5PX         0.03212  -0.00621  -0.00468  -0.00404   0.02684
 228        5PY        -0.07523   0.00812   0.00295   0.00689  -0.02091
 229        5PZ         0.00241  -0.01147   0.00306   0.00542  -0.00159
 230 14  H  1S         -0.11355  -0.03946   0.01987   0.03340  -0.05587
 231        2S         -0.28783  -0.05077   0.03299   0.04929  -0.10673
 232        3S         -0.00924   0.00217   0.00171  -0.00337  -0.00308
 233        4PX         0.00345  -0.00012   0.00034  -0.00333   0.00571
 234        4PY        -0.00019   0.00108  -0.00069  -0.00325   0.00504
 235        4PZ         0.00066   0.00285   0.01053   0.00667   0.00049
 236        5PX         0.00294   0.00540  -0.00430   0.00720  -0.00704
 237        5PY         0.06166   0.00777  -0.00475  -0.01871   0.03121
 238        5PZ         0.00060  -0.00108   0.00612   0.00302  -0.00066
                           6         7         8         9        10
     Eigenvalues --     2.00000   2.00000   2.00000   2.00000   2.00000
   1 1   C  1S          0.23438   0.00742   0.12365   0.18394  -0.16246
   2        2S          0.02610  -0.01920   0.00150  -0.00544  -0.00785
   3        3S          0.06837  -0.06948   0.02315  -0.04539   0.07210
   4        4S         -0.05582   0.03362  -0.08251  -0.04205   0.19168
   5        5PX        -0.06712  -0.23014   0.04254  -0.02368  -0.04184
   6        5PY         0.09275  -0.08048   0.08365  -0.07381   0.02688
   7        5PZ         0.07106   0.03829   0.12726   0.01646  -0.02087
   8        6PX        -0.06570  -0.08401  -0.00562   0.02513   0.02185
   9        6PY         0.09957   0.02431   0.05653  -0.04641  -0.14392
  10        6PZ         0.02422   0.02081   0.07538   0.00827  -0.00601
  11        7PX         0.00611  -0.08396   0.06614   0.08350  -0.03655
  12        7PY         0.01388   0.20780  -0.17074  -0.28143   0.01651
  13        7PZ         0.00236   0.00102   0.00656   0.00021  -0.00066
  14        8D 0       -0.00033  -0.00592   0.00359   0.00267  -0.00097
  15        8D+1       -0.00397  -0.00189  -0.00460  -0.00072   0.00102
  16        8D-1       -0.00448   0.00334   0.00743  -0.00243   0.00315
  17        8D+2        0.00494   0.00665   0.00030   0.00116   0.00272
  18        8D-2       -0.00462   0.00717  -0.00403   0.00307   0.00217
  19        9D 0        0.00250   0.00437   0.00086   0.00394  -0.00783
  20        9D+1       -0.00018  -0.00123  -0.00235   0.00074  -0.00023
  21        9D-1       -0.00096   0.00244   0.00584  -0.00198   0.00099
  22        9D+2        0.01674  -0.00684   0.00963  -0.01458  -0.02372
  23        9D-2       -0.01159  -0.01586   0.00062   0.00823   0.01655
  24 2   C  1S          0.12300  -0.27266   0.05202  -0.10174   0.46542
  25        2S         -0.04120   0.07096  -0.10258  -0.10603   0.03092
  26        3S         -0.03547   0.17225  -0.16973  -0.18131  -0.04282
  27        4S          0.02931  -0.16791   0.11069   0.00491  -0.25727
  28        5PX        -0.04514  -0.15062   0.03325   0.05967  -0.09005
  29        5PY        -0.00947   0.13377  -0.03067   0.14519   0.03235
  30        5PZ         0.11342  -0.00757  -0.00490   0.03884  -0.05232
  31        6PX         0.03333  -0.12756   0.09622   0.00171  -0.16794
  32        6PY         0.06686   0.05741   0.05296   0.03329  -0.08860
  33        6PZ         0.05543  -0.01017  -0.01522   0.02327  -0.02734
  34        7PX         0.00380   0.19669  -0.16225  -0.24994   0.05044
  35        7PY         0.01345   0.14376  -0.10227  -0.18271   0.00497
  36        7PZ         0.00254  -0.00155  -0.00110   0.00153  -0.00203
  37        8D 0        0.00151  -0.00094   0.00246   0.00306  -0.00078
  38        8D+1       -0.00609   0.00332   0.01131  -0.00245   0.00328
  39        8D-1        0.00203   0.00289   0.00942   0.00018  -0.00016
  40        8D+2       -0.00509  -0.00787  -0.00150  -0.00423   0.00639
  41        8D-2       -0.00350  -0.00888   0.00039  -0.00635  -0.01127
  42        9D 0        0.00116   0.00264  -0.00079   0.00181   0.00783
  43        9D+1       -0.00148   0.00365   0.00883  -0.00417   0.00133
  44        9D-1        0.00190   0.00210   0.00332  -0.00312  -0.00003
  45        9D+2       -0.01070   0.00684  -0.01658   0.00199   0.01424
  46        9D-2       -0.00932  -0.00074  -0.00412  -0.00497  -0.03002
  47 3   C  1S          0.02483   0.01023   0.02443   0.17308   0.13029
  48        2S         -0.08500  -0.05321  -0.02697  -0.04747  -0.01800
  49        3S         -0.16419  -0.19161  -0.02946  -0.00394   0.11513
  50        4S         -0.00733   0.33608  -0.23554  -0.03004   0.61392
  51        5PX         0.06070   0.15182  -0.06065  -0.16826   0.02500
  52        5PY        -0.03332   0.03823  -0.06307   0.07540   0.28262
  53        5PZ         0.13255  -0.05252  -0.17230   0.05383  -0.06740
  54        6PX         0.11660  -0.03130   0.13490  -0.01625  -0.15845
  55        6PY        -0.12204  -0.18463   0.02173   0.04036  -0.07567
  56        6PZ         0.06242  -0.02245  -0.07828   0.02317  -0.03229
  57        7PX         0.01087   0.21023  -0.15183  -0.23985   0.02682
  58        7PY        -0.00203  -0.00973   0.00780   0.05842   0.06721
  59        7PZ         0.00915  -0.00454  -0.01799   0.00245  -0.00472
  60        8D 0        0.00384  -0.00077   0.00283   0.00105  -0.00060
  61        8D+1        0.00222   0.00192   0.00711  -0.00028  -0.00088
  62        8D-1        0.00706  -0.00294  -0.00995   0.00364  -0.00328
  63        8D+2        0.00496   0.00701  -0.00363  -0.00685   0.00525
  64        8D-2        0.00371   0.01369  -0.00153  -0.00147  -0.00907
  65        9D 0       -0.00096  -0.00012  -0.00116  -0.00587  -0.00184
  66        9D+1        0.00076   0.00641   0.01394  -0.00862   0.00094
  67        9D-1       -0.00644   0.00537   0.01622  -0.00239   0.00286
  68        9D+2        0.02381  -0.01180   0.02530   0.01026  -0.03557
  69        9D-2        0.02199   0.00876   0.02307   0.03809   0.01165
  70 4   C  1S          0.65437  -0.11273   0.19406   0.01012  -0.03501
  71        2S         -0.02922  -0.06162  -0.01087  -0.03800   0.09152
  72        3S         -0.08145  -0.19420   0.01587  -0.20298   0.14669
  73        4S         -0.04938  -0.39691   0.25599   0.42336  -0.39825
  74        5PX        -0.13972  -0.09905  -0.03496   0.02890   0.04300
  75        5PY         0.00853   0.03922  -0.00015  -0.17775  -0.13269
  76        5PZ         0.11251  -0.08034  -0.25744   0.08306  -0.05639
  77        6PX        -0.05134  -0.05032   0.01117  -0.00381   0.08713
  78        6PY        -0.19950  -0.20917  -0.06736  -0.14498   0.06638
  79        6PZ         0.06466  -0.04061  -0.14207   0.03375  -0.03026
  80        7PX         0.01811  -0.06639   0.02881  -0.10421  -0.19168
  81        7PY        -0.02761  -0.23867   0.18266   0.42267   0.13440
  82        7PZ        -0.00847   0.00690   0.01659  -0.00279   0.00367
  83        8D 0       -0.00313  -0.00355   0.00023   0.00182  -0.00433
  84        8D+1        0.00442   0.00713   0.01231  -0.00587  -0.00012
  85        8D-1       -0.00283   0.00569   0.01195  -0.00386   0.00300
  86        8D+2        0.01666   0.02472  -0.00565  -0.01241   0.01259
  87        8D-2        0.00681   0.00845  -0.00256  -0.00023  -0.00466
  88        9D 0        0.00196  -0.01497   0.00683   0.00481   0.00792
  89        9D+1        0.01353  -0.00945  -0.02847   0.00871  -0.00666
  90        9D-1       -0.00057  -0.00291  -0.00644   0.00590  -0.00026
  91        9D+2        0.01202   0.09069  -0.04779   0.02431   0.03041
  92        9D-2       -0.09929  -0.08127  -0.02847   0.01148   0.06342
  93 5   O  1S         -0.04852  -0.00486  -0.03350  -0.01454   0.25593
  94        2S          0.02145  -0.01173   0.05550   0.01501   0.08306
  95        3S          0.02254  -0.02943   0.07570   0.02806   0.07383
  96        4S          0.02378   0.02248  -0.00593  -0.10054  -0.02378
  97        5PX         0.11648   0.11467  -0.02729  -0.00865   0.02938
  98        5PY         0.04958   0.06865  -0.00070  -0.18914   0.00041
  99        5PZ         0.00931  -0.15596  -0.31893   0.15922  -0.03859
 100        6PX         0.04763   0.05095  -0.01190  -0.00542   0.01836
 101        6PY         0.02777   0.04080  -0.00502  -0.12093  -0.00195
 102        6PZ         0.00466  -0.10650  -0.21545   0.10949  -0.02584
 103        7PX         0.02060   0.05934  -0.01389  -0.01397   0.05291
 104        7PY         0.00497  -0.00112  -0.00077  -0.04669  -0.04000
 105        7PZ         0.00846  -0.02665  -0.05680   0.02045  -0.00839
 106        8D 0       -0.00090   0.00057  -0.00137   0.00327  -0.00143
 107        8D+1        0.00380  -0.00284  -0.00894   0.00199  -0.00185
 108        8D-1       -0.00100  -0.00297  -0.00533   0.00388  -0.00038
 109        8D+2        0.00115  -0.00077   0.00153   0.00632   0.00399
 110        8D-2        0.00483   0.00617  -0.00131  -0.00220  -0.00120
 111        9D 0        0.00386   0.00223   0.00111   0.00117  -0.00097
 112        9D+1        0.00582  -0.00415  -0.01283   0.00350  -0.00285
 113        9D-1       -0.00402  -0.00435  -0.00600   0.00731   0.00010
 114        9D+2       -0.00944  -0.00602   0.00225   0.01843   0.00776
 115        9D-2       -0.00265   0.00381  -0.00035  -0.00263   0.00075
 116 6   C  1S         -0.08989   0.09772   0.01406   0.15159  -0.03151
 117        2S         -0.06322  -0.14667   0.02537  -0.12889  -0.03753
 118        3S         -0.03541  -0.07677   0.01787  -0.03295  -0.01574
 119        4S         -0.00033   0.01341  -0.00186  -0.02356  -0.01491
 120        5PX        -0.01933   0.01048  -0.03260  -0.10325  -0.02193
 121        5PY        -0.00755  -0.02590  -0.06121  -0.06866  -0.06623
 122        5PZ        -0.13193   0.01117   0.11799   0.06476   0.04063
 123        6PX        -0.02364  -0.02927   0.01936   0.03105   0.02627
 124        6PY         0.00931   0.02561  -0.00632   0.02840   0.00688
 125        6PZ         0.00344   0.01138   0.02137  -0.01550   0.00227
 126        7PX        -0.00988  -0.01583   0.01351   0.02840   0.00317
 127        7PY        -0.00800  -0.00283   0.00545   0.03488   0.01726
 128        7PZ         0.00378   0.00859   0.01454  -0.01117   0.00107
 129        8D 0       -0.00047   0.00004  -0.00459  -0.00053  -0.00431
 130        8D+1       -0.00112  -0.00460  -0.00855   0.00558  -0.00073
 131        8D-1       -0.00608   0.00732   0.01887  -0.00392   0.00346
 132        8D+2        0.00546   0.00619   0.00064  -0.00176   0.00267
 133        8D-2        0.00165  -0.00001  -0.00125   0.00919  -0.00169
 134        9D 0        0.00019   0.00753   0.00896   0.02461   0.01750
 135        9D+1        0.01391   0.00050  -0.00901  -0.00785  -0.00398
 136        9D-1        0.01593  -0.00099  -0.01396  -0.00818  -0.00478
 137        9D+2       -0.00442  -0.00579  -0.00038  -0.00645  -0.00273
 138        9D-2        0.00943   0.01394  -0.00888  -0.02341  -0.00964
 139 7   C  1S          0.16544  -0.13643   0.05386  -0.08155   0.11079
 140        2S         -0.03327  -0.01174  -0.00517   0.03794   0.01508
 141        3S          0.05667   0.12024  -0.02688   0.02466  -0.03334
 142        4S         -0.03205   0.53836  -0.38800  -0.60807   0.07784
 143        5PX         0.03481   0.16239  -0.11459  -0.06544   0.01027
 144        5PY         0.02807  -0.01070   0.04687   0.21796   0.07188
 145        5PZ         0.05447   0.02822   0.00987   0.00679  -0.00496
 146        6PX        -0.09680  -0.33044   0.09265   0.03117   0.08035
 147        6PY        -0.17048  -0.15141  -0.05452  -0.06046   0.12058
 148        6PZ         0.02196   0.02384   0.02428  -0.00882   0.00280
 149        7PX        -0.05275  -0.06471   0.06813   0.28384   0.09682
 150        7PY        -0.01003  -0.13966   0.10608   0.24099  -0.05066
 151        7PZ         0.01003   0.00071  -0.01108  -0.00501  -0.00175
 152        8D 0        0.00059  -0.00356   0.00127  -0.00092  -0.00331
 153        8D+1        0.00033   0.00453   0.01182  -0.00161   0.00114
 154        8D-1       -0.00535   0.00413   0.01295  -0.00381   0.00281
 155        8D+2        0.00972   0.01134  -0.00160   0.00016  -0.00116
 156        8D-2       -0.00207   0.00864  -0.00742  -0.01267  -0.00409
 157        9D 0        0.00432   0.01007  -0.00482  -0.00600  -0.00559
 158        9D+1        0.00153   0.00328   0.00696  -0.00571   0.00052
 159        9D-1        0.00433  -0.00526  -0.01451   0.00347  -0.00227
 160        9D+2       -0.07142  -0.13028   0.00997  -0.05026   0.05908
 161        9D-2       -0.04342  -0.04190   0.03141   0.13974   0.04216
 162 8   C  1S          0.10764  -0.30384  -0.11199  -0.21152   0.31816
 163        2S          0.01951   0.11053  -0.07222  -0.03765   0.04437
 164        3S          0.14946   0.39029  -0.10641   0.00371  -0.04807
 165        4S          0.11182  -0.37590   0.31621   0.23032  -0.21952
 166        5PX         0.00370  -0.11412   0.07851  -0.03248  -0.00535
 167        5PY        -0.13283  -0.01591  -0.04399   0.06069  -0.01023
 168        5PZ         0.03642   0.06655   0.15929  -0.00794   0.00805
 169        6PX        -0.11367  -0.29509   0.08395   0.05216   0.11983
 170        6PY         0.08393  -0.06849   0.06101  -0.09359  -0.05324
 171        6PZ         0.01038   0.03478   0.08891  -0.00121   0.00786
 172        7PX        -0.01998  -0.09636   0.08422   0.16994  -0.00347
 173        7PY        -0.00494   0.09170  -0.07689  -0.13581   0.04385
 174        7PZ        -0.00717   0.00512   0.01879   0.00120   0.00392
 175        8D 0        0.00024  -0.00412   0.00232  -0.00102  -0.00172
 176        8D+1       -0.00102  -0.00036   0.00319   0.00016  -0.00023
 177        8D-1       -0.00413  -0.00210  -0.00583  -0.00091   0.00107
 178        8D+2       -0.00094  -0.01183   0.00363   0.00247  -0.00058
 179        8D-2       -0.00560   0.00973  -0.00845  -0.00634  -0.00294
 180        9D 0        0.00320  -0.00525   0.00175  -0.00093   0.00739
 181        9D+1        0.00263  -0.00074  -0.00322  -0.00174  -0.00108
 182        9D-1       -0.00203   0.00153   0.00367  -0.00133   0.00110
 183        9D+2        0.04178   0.03916  -0.00310  -0.04580  -0.02543
 184        9D-2        0.02239   0.01325   0.02322   0.03132  -0.02193
 185 9   H  1S         -0.04134  -0.07968   0.04442  -0.03952  -0.24270
 186        2S         -0.04705  -0.19711   0.11414  -0.00688  -0.39027
 187        3S          0.00035   0.00565  -0.00141   0.00881   0.01164
 188        4PX         0.00036   0.00193  -0.00077  -0.00632  -0.00601
 189        4PY        -0.00459  -0.00661   0.00129  -0.00261  -0.00954
 190        4PZ         0.00461  -0.00183  -0.00607   0.00182  -0.00232
 191        5PX        -0.00299  -0.02023   0.01426   0.01835  -0.02333
 192        5PY        -0.01132  -0.04902   0.02588  -0.00147  -0.08458
 193        5PZ        -0.00146   0.00271   0.00642  -0.00206   0.00091
 194 10  H  1S         -0.00093  -0.05875   0.06098   0.03766   0.02681
 195        2S          0.01363   0.02329   0.06813   0.16919   0.11278
 196        3S         -0.00637  -0.01321   0.01666   0.03940   0.01654
 197        4PX        -0.00164  -0.00684   0.00313  -0.00388  -0.00013
 198        4PY        -0.00123  -0.00504   0.00038  -0.00364  -0.00187
 199        4PZ        -0.00415   0.00037   0.00378   0.00201   0.00128
 200        5PX         0.00024   0.00683   0.01155   0.03636   0.02532
 201        5PY         0.00344   0.00065   0.00500   0.00627   0.00270
 202        5PZ         0.00429   0.00035  -0.00228  -0.00244  -0.00116
 203 11  H  1S          0.05538  -0.11089  -0.12880  -0.12890  -0.08308
 204        2S          0.08785  -0.04551  -0.13604  -0.14326  -0.07166
 205        3S          0.00820   0.00449   0.00233  -0.02683  -0.02073
 206        4PX        -0.00085   0.00072  -0.00139  -0.00108  -0.00033
 207        4PY        -0.00251   0.00455   0.00211   0.00620   0.00187
 208        4PZ        -0.00200  -0.00789  -0.00112  -0.00934  -0.00350
 209        5PX         0.00322   0.01340   0.00213  -0.00081   0.00605
 210        5PY        -0.01164   0.00037   0.00957   0.02579   0.00782
 211        5PZ         0.01258  -0.00688  -0.01218  -0.03118  -0.00842
 212 12  H  1S         -0.13138  -0.06663   0.09232  -0.06338  -0.01863
 213        2S         -0.12159  -0.02230   0.05804  -0.03827  -0.00796
 214        3S         -0.00455  -0.00772  -0.01104  -0.00423  -0.02022
 215        4PX        -0.00037   0.00128  -0.00097  -0.00169  -0.00029
 216        4PY         0.00513   0.00396  -0.00441   0.00217  -0.00053
 217        4PZ         0.00441   0.00824  -0.00011   0.00777   0.00288
 218        5PX        -0.00018   0.00699  -0.00915   0.00843   0.00582
 219        5PY         0.01203   0.00653   0.00461   0.00465   0.00262
 220        5PZ         0.02141   0.01142  -0.00327   0.00586   0.00036
 221 13  H  1S         -0.02061  -0.10695   0.09457   0.21140   0.05944
 222        2S         -0.02670  -0.32440   0.24663   0.44250   0.11768
 223        3S         -0.00414   0.01544  -0.00080  -0.00137   0.03904
 224        4PX         0.00015  -0.00025   0.00122   0.00680   0.00251
 225        4PY         0.00265   0.00450  -0.00285  -0.00493   0.00009
 226        4PZ         0.00139   0.00121   0.00106   0.00023   0.00006
 227        5PX         0.00034  -0.05508   0.03295   0.01953   0.02196
 228        5PY         0.00035   0.05691  -0.04794  -0.09560  -0.01173
 229        5PZ        -0.00253   0.00661   0.01534  -0.00469   0.00266
 230 14  H  1S         -0.09514   0.05285  -0.06092   0.01674   0.00452
 231        2S         -0.11826   0.15414  -0.14252  -0.03406   0.00266
 232        3S         -0.00144  -0.01375   0.00755   0.01140  -0.01942
 233        4PX         0.00255  -0.00297   0.00271  -0.00138  -0.00031
 234        4PY         0.00381  -0.00227   0.00244  -0.00071  -0.00057
 235        4PZ         0.00118   0.00241   0.00576  -0.00037   0.00034
 236        5PX         0.00314  -0.00655   0.00238   0.00358   0.00390
 237        5PY         0.03133  -0.03036   0.03492   0.00652  -0.00001
 238        5PZ        -0.00035   0.00207   0.00486  -0.00082   0.00076
                          11        12        13        14        15
     Eigenvalues --     2.00000   2.00000   2.00000   2.00000   2.00000
   1 1   C  1S         -0.03146  -0.04960   0.22297   0.10141  -0.09763
   2        2S         -0.00773   0.01919  -0.01800   0.04847   0.02521
   3        3S         -0.04471   0.04293  -0.11414   0.09972   0.08538
   4        4S          0.05005   0.10329  -0.17351  -0.10172   0.12262
   5        5PX         0.07579   0.16569   0.06823  -0.05761   0.01093
   6        5PY         0.01655   0.28926  -0.10301   0.05087   0.08581
   7        5PZ         0.00614  -0.06436   0.00132   0.02670   0.07904
   8        6PX         0.02140   0.07910   0.02398  -0.02604  -0.00809
   9        6PY         0.01104   0.02024   0.06888   0.01473  -0.02397
  10        6PZ         0.00320  -0.03351   0.00321   0.01291   0.04430
  11        7PX         0.00794   0.02226   0.04371   0.02330  -0.05928
  12        7PY        -0.09430  -0.07830   0.03216  -0.04519   0.14450
  13        7PZ        -0.00070  -0.00191  -0.00118  -0.00213  -0.00172
  14        8D 0        0.00153   0.00099   0.00274   0.00012  -0.00255
  15        8D+1       -0.00012   0.00267  -0.00076  -0.00203  -0.00434
  16        8D-1       -0.00062  -0.00007   0.00380  -0.00014   0.00120
  17        8D+2        0.00078  -0.00095   0.00498   0.00510  -0.00387
  18        8D-2       -0.01182  -0.02247  -0.00068  -0.00228  -0.00451
  19        9D 0        0.00081  -0.01061   0.00386   0.00324  -0.00387
  20        9D+1       -0.00019   0.00058  -0.00026   0.00014  -0.00001
  21        9D-1        0.00067  -0.00108   0.00077  -0.00058  -0.00061
  22        9D+2        0.00817   0.00188   0.02316  -0.00183  -0.00129
  23        9D-2        0.00524   0.02423  -0.00415   0.00168   0.00381
  24 2   C  1S          0.36661   0.00027  -0.18545   0.22298  -0.15863
  25        2S         -0.09304  -0.09525   0.01094  -0.04188   0.01964
  26        3S         -0.27408  -0.21875   0.08372  -0.07420   0.05050
  27        4S          0.00374   0.03113   0.22722   0.03414  -0.07516
  28        5PX         0.15709   0.03905   0.10844  -0.01390  -0.03038
  29        5PY        -0.03616  -0.27718  -0.01296   0.05036  -0.07797
  30        5PZ         0.01009  -0.04324  -0.03397   0.03088   0.05257
  31        6PX         0.19721   0.14601   0.12947  -0.02487  -0.05058
  32        6PY         0.05047  -0.01384  -0.00444  -0.00110  -0.03840
  33        6PZ         0.00436  -0.01833  -0.01918   0.01535   0.02485
  34        7PX        -0.08395  -0.06547  -0.00845  -0.03265   0.12973
  35        7PY        -0.06525  -0.05038   0.01167  -0.00079   0.08096
  36        7PZ         0.00063  -0.00148  -0.00349  -0.00076  -0.00040
  37        8D 0        0.00231   0.00440   0.00236  -0.00046  -0.00037
  38        8D+1       -0.00002  -0.00116   0.00207  -0.00190  -0.00012
  39        8D-1        0.00028  -0.00353   0.00084   0.00104   0.00427
  40        8D+2       -0.00472   0.00583   0.00108  -0.00339   0.00114
  41        8D-2        0.00659   0.00155   0.00212  -0.00465   0.00113
  42        9D 0       -0.00142  -0.00810  -0.00484   0.00078  -0.00137
  43        9D+1        0.00098  -0.00118  -0.00072  -0.00355  -0.00541
  44        9D-1        0.00013  -0.00021  -0.00147  -0.00356  -0.00670
  45        9D+2       -0.02010  -0.03976  -0.01243   0.00753   0.00547
  46        9D-2        0.00004  -0.01850   0.03138  -0.00685  -0.00942
  47 3   C  1S         -0.01778   0.12310  -0.13777   0.05166   0.11751
  48        2S         -0.01200  -0.09494  -0.10939  -0.02745   0.02372
  49        3S         -0.05439  -0.23774  -0.10740  -0.00189  -0.01635
  50        4S         -0.25572   0.13637  -0.18201  -0.09768   0.14963
  51        5PX        -0.15313   0.07574  -0.01893  -0.03378   0.06597
  52        5PY        -0.18976  -0.02928   0.02399   0.04667  -0.03544
  53        5PZ         0.00090   0.00114  -0.03909   0.04444   0.03126
  54        6PX         0.18556   0.30250   0.08959  -0.03572  -0.01348
  55        6PY         0.03964  -0.21719  -0.01523  -0.01763  -0.02262
  56        6PZ         0.00541  -0.00086  -0.01901   0.02420   0.01702
  57        7PX        -0.03981  -0.07843  -0.02526  -0.01032   0.12284
  58        7PY         0.02211   0.03411  -0.04059  -0.02186   0.00525
  59        7PZ        -0.00060   0.00223  -0.00353   0.00146  -0.00212
  60        8D 0        0.00223   0.00693   0.00259   0.00054  -0.00020
  61        8D+1        0.00131  -0.00310  -0.00148  -0.00025   0.00101
  62        8D-1       -0.00085   0.00031  -0.00077   0.00334   0.00363
  63        8D+2       -0.00834   0.00766   0.00437  -0.00546   0.00740
  64        8D-2       -0.00478  -0.01396  -0.00549  -0.00170  -0.00096
  65        9D 0        0.00029   0.00657  -0.00133   0.00225   0.00318
  66        9D+1        0.00203  -0.00152  -0.00349  -0.00865  -0.01472
  67        9D-1        0.00312  -0.00392   0.00373   0.00280   0.00729
  68        9D+2        0.06679   0.03464  -0.02092   0.00646  -0.00819
  69        9D-2        0.02700   0.07892   0.05766   0.00080  -0.02474
  70 4   C  1S         -0.15178  -0.21827  -0.13290  -0.04983  -0.00761
  71        2S         -0.02211   0.00425  -0.00101   0.07151  -0.02726
  72        3S          0.04577   0.19464   0.11198   0.20005   0.04140
  73        4S          0.24993  -0.16481   0.29566   0.12756  -0.41358
  74        5PX        -0.02766  -0.08089  -0.06829   0.03029  -0.07648
  75        5PY        -0.00799   0.08871  -0.02471   0.04472  -0.02377
  76        5PZ        -0.02839   0.03057  -0.00019   0.07438   0.07920
  77        6PX        -0.08199   0.09481  -0.02947   0.00193  -0.01169
  78        6PY        -0.08752  -0.31693  -0.13302   0.05291   0.09988
  79        6PZ        -0.01577   0.02284  -0.00721   0.02475   0.01136
  80        7PX        -0.02722  -0.08464   0.09336   0.02210  -0.00325
  81        7PY        -0.01505   0.15815   0.00907  -0.00505  -0.19992
  82        7PZ         0.00585  -0.00510   0.00636   0.00841   0.01546
  83        8D 0        0.00283  -0.00107  -0.00203  -0.00033  -0.00199
  84        8D+1        0.00320  -0.00353  -0.00018  -0.00068  -0.00270
  85        8D-1        0.00042  -0.00159   0.00403   0.00022   0.00170
  86        8D+2       -0.00822   0.00599   0.00616  -0.00218   0.01609
  87        8D-2        0.01106   0.00682   0.00644  -0.00444   0.00640
  88        9D 0       -0.00712   0.00229  -0.00312  -0.00212   0.00210
  89        9D+1       -0.00407   0.00409  -0.00272   0.00404   0.00240
  90        9D-1       -0.00109  -0.00066   0.00431   0.00872   0.01464
  91        9D+2       -0.02799  -0.05583  -0.02365   0.03517  -0.05511
  92        9D-2       -0.06164  -0.12461  -0.02824   0.02140  -0.01302
  93 5   O  1S          0.04298   0.16306   0.01560   0.36503  -0.15834
  94        2S         -0.12839   0.06646  -0.06604  -0.15640   0.14995
  95        3S         -0.15025   0.08693  -0.09141  -0.23197   0.20018
  96        4S         -0.04604   0.05485  -0.05497  -0.08297   0.11986
  97        5PX         0.07976   0.02546   0.10905   0.05207   0.02669
  98        5PY        -0.05310   0.07823   0.06434   0.10538  -0.00272
  99        5PZ        -0.05946   0.05099   0.00665   0.08248   0.14766
 100        6PX         0.03561   0.02201   0.04637   0.02448   0.00943
 101        6PY        -0.03157   0.04011   0.04890   0.06884  -0.00073
 102        6PZ        -0.04070   0.03402   0.00486   0.05655   0.10267
 103        7PX        -0.02695   0.05231  -0.00588  -0.01562   0.02879
 104        7PY         0.02516  -0.00588   0.00017   0.00544   0.01782
 105        7PZ        -0.01356   0.01267  -0.00813  -0.00282  -0.00479
 106        8D 0        0.00306  -0.00269  -0.00126  -0.00018  -0.00206
 107        8D+1       -0.00134   0.00170  -0.00106   0.00028  -0.00111
 108        8D-1       -0.00088   0.00043   0.00134   0.00356   0.00665
 109        8D+2        0.00185   0.00198   0.00035  -0.00315   0.00210
[...]
 ! A17   A(4,7,13)             119.8964         -DE/DX =    0.0                 !
 ! A18   A(8,7,13)             118.05           -DE/DX =    0.0                 !
 ! A19   A(1,8,7)              111.3247         -DE/DX =    0.0                 !
 ! A20   A(1,8,14)             126.7364         -DE/DX =    0.0                 !
 ! A21   A(7,8,14)             121.9389         -DE/DX =    0.0                 !
 ! D1    D(8,1,2,3)              0.0027         -DE/DX =    0.0                 !
 ! D2    D(2,1,8,7)             -0.0048         -DE/DX =    0.0                 !
 ! D3    D(2,1,8,14)           180.0093         -DE/DX =    0.0                 !
 ! D4    D(1,2,3,4)             -0.0008         -DE/DX =    0.0                 !
 ! D5    D(1,2,3,9)           -179.9971         -DE/DX =    0.0                 !
 ! D6    D(2,3,4,5)           -179.9989         -DE/DX =    0.0                 !
 ! D7    D(2,3,4,7)              0.0017         -DE/DX =    0.0                 !
 ! D8    D(9,3,4,5)             -0.0023         -DE/DX =    0.0                 !
 ! D9    D(9,3,4,7)            179.9984         -DE/DX =    0.0                 !
 ! D10   D(3,4,5,6)            179.965          -DE/DX =    0.0                 !
 ! D11   D(7,4,5,6)             -0.0356         -DE/DX =    0.0                 !
 ! D12   D(3,4,7,8)             -0.0045         -DE/DX =    0.0                 !
 ! D13   D(3,4,7,13)          -180.0071         -DE/DX =    0.0                 !
 ! D14   D(5,4,7,8)            179.9962         -DE/DX =    0.0                 !
 ! D15   D(5,4,7,13)            -0.0065         -DE/DX =    0.0                 !
 ! D16   D(4,5,6,10)          -179.9599         -DE/DX =    0.0                 !
 ! D17   D(4,5,6,11)            61.322          -DE/DX =    0.0                 !
 ! D18   D(4,5,6,12)           -61.2549         -DE/DX =    0.0                 !
 ! D19   D(4,7,8,1)              0.0056         -DE/DX =    0.0                 !
 ! D20   D(4,7,8,14)          -180.0078         -DE/DX =    0.0                 !
 ! D21   D(13,7,8,1)           180.0081         -DE/DX =    0.0                 !
 ! D22   D(13,7,8,14)           -0.0052         -DE/DX =    0.0                 !
 --------------------------------------------------------------------------------
 GradGradGradGradGradGradGradGradGradGradGradGradGradGradGradGradGradGrad

 Leave Link  103 at Sat Nov  5 20:40:47 2016, MaxMem=   524288000 cpu:               0.1 elap:               0.0
 (Enter /home/ubuntu/g16/l9999.exe)

 ----------------------------------------------------------------------

 Electric dipole moment (input orientation):
 (Debye = 10**-18 statcoulomb cm , SI units = C m)
                  (au)            (Debye)         (10**-30 SI)
   Tot        0.112582D+01      0.286156D+01      0.954512D+01
   x          0.844172D+00      0.214567D+01      0.715719D+01
   y         -0.736054D+00     -0.187086D+01     -0.624053D+01
   z         -0.114346D+00     -0.290638D+00     -0.969465D+00

 Dipole polarizability, Alpha (input orientation).
 (esu units = cm**3 , SI units = C**2 m**2 J**-1)
 Alpha(0;0):
               (au)            (10**-24 esu)      (10**-40 SI)
   iso        0.870487D+02      0.128993D+02      0.143524D+02
   aniso      0.491779D+02      0.728742D+01      0.810835D+01
   xx         0.108857D+03      0.161309D+02      0.179481D+02
   yx         0.192364D+00      0.285053D-01      0.317165D-01
   yy         0.967562D+02      0.143378D+02      0.159529D+02
   zx        -0.403575D+01     -0.598037D+00     -0.665406D+00
   zy         0.287998D+01      0.426769D+00      0.474844D+00
   zz         0.555330D+02      0.822914D+01      0.915616D+01

 ----------------------------------------------------------------------

 Dipole orientation:
     6         -1.61620305          1.44537911         -1.44279318
     6         -0.10965009         -0.27248457         -2.06816057
     6          1.26915026         -1.84562284         -0.51223221
     6          0.77276769         -1.28061808          2.07064934
     8          2.06595366         -2.75610069          3.75333838
     6          1.70329106         -2.34143009          6.38709586
     6         -0.92795007          0.65857687          2.79859960
     6         -2.23181898          2.14652032          1.00557711
     1          2.57968245         -3.33985845         -1.03703870
     1          2.91301626         -3.71974896          7.34327133
     1         -0.27835116         -2.66150574          6.93398177
     1          2.27911663         -0.41811571          6.93292685
     1         -1.25952934          1.03554699          4.79202182
     1         -3.53674813          3.63406541          1.56832151

 Electric dipole moment (dipole orientation):
 (Debye = 10**-18 statcoulomb cm , SI units = C m)
                  (au)            (Debye)         (10**-30 SI)
   Tot        0.112582D+01      0.286156D+01      0.954512D+01
   x          0.000000D+00      0.000000D+00      0.000000D+00
   y          0.000000D+00      0.000000D+00      0.000000D+00
   z          0.112582D+01      0.286156D+01      0.954512D+01

 Dipole polarizability, Alpha (dipole orientation).
 (esu units = cm**3 , SI units = C**2 m**2 J**-1)
 Alpha(0;0):
               (au)            (10**-24 esu)      (10**-40 SI)
   iso        0.870487D+02      0.128993D+02      0.143524D+02
   aniso      0.491779D+02      0.728742D+01      0.810835D+01
   xx         0.755223D+02      0.111912D+02      0.124519D+02
   yx        -0.233699D+02     -0.346306D+01     -0.385318D+01
   yy         0.816809D+02      0.121039D+02      0.134674D+02
   zx         0.397405D+01      0.588893D+00      0.655232D+00
   zy        -0.454582D+01     -0.673621D+00     -0.749505D+00
   zz         0.103943D+03      0.154028D+02      0.171379D+02

 ----------------------------------------------------------------------
 1\1\GINC-LC06-2-7\Freq\UB3LYP\Aug-CC-pVDZ\C7H6O1\UBUNTU\05-Nov-2016\0\
 \#P Geom=AllCheck Guess=TCheck SCRF=Check GenChk UB3LYP/Aug-CC-pVDZ Fr
 eq\\s-4-MeOC6H3_UB3LYP-aug-cc-pVDZ\\0,1\C,-1.3316084111,-0.3495197746,
 -0.0636889323\C,-0.784866275,0.7779441705,-0.0266234684\C,0.5602129765
 ,1.073787365,-0.1074155496\C,1.3234134342,-0.1196859932,-0.2477211886\
 O,2.6736108729,0.0805146651,-0.3355111335\C,3.5270469975,-1.0503852436
 ,-0.4775037029\C,0.7149465407,-1.4000422343,-0.2907685789\C,-0.6847325
 45,-1.5686217414,-0.1969763748\H,1.0434063086,2.0478776897,-0.07616514
 32\H,4.5444648126,-0.6499516309,-0.5257465182\H,3.3060104534,-1.602616
 429,-1.4039322243\H,3.4398749864,-1.7264644369,0.3870551154\H,1.331235
 022,-2.2898750498,-0.3990549869\H,-1.1498451738,-2.5523513567,-0.23035
 73138\\Version=ES64L-G16RevA.03\State=1-A\HF=-345.4712746\S2=0.\S2-1=0
 .\S2A=0.\RMSD=8.255e-09\RMSF=1.753e-05\ZeroPoint=0.1070921\Thermal=0.1
 14141\Dipole=0.8441719,-0.7360544,-0.1143459\DipoleDeriv=-0.7189569,-0
 .6269167,0.0059923,0.0234486,-0.1601693,-0.0086573,0.0510365,0.0403708
 ,-0.0620965,0.200975,0.6723947,0.0320577,-0.0321076,-0.5656476,-0.0373
 077,-0.0167608,-0.0904185,0.0017781,-0.0313328,-0.0608088,-0.0141715,0
 .445225,0.3107558,-0.0006266,0.0209155,0.0375119,-0.1619527,1.5219352,
 -0.1471458,-0.1216934,0.0848528,0.0086282,-0.0085083,-0.1058254,0.0089
 149,0.0485805,-1.7736433,0.2778795,0.1348169,0.2318322,-0.4379493,-0.0
 313339,0.1317429,-0.0347337,-0.2486435,0.654894,-0.1980032,-0.0374255,
 -0.5287492,0.525753,0.0526421,-0.0602153,0.0277657,0.3453158,-0.274892
 ,0.0942128,0.0139758,-0.2415768,-0.1259538,0.0216226,-0.0092658,-0.003
 6636,-0.1750461,0.3695756,0.0759132,-0.0295512,-0.0890976,0.5221738,0.
 0494414,-0.0408832,0.037049,-0.0875596,0.0540031,-0.0418678,0.0042632,
 -0.0778891,0.0020943,-0.0043501,0.0017662,-0.0070785,0.148592,-0.13036
 47,-0.0113006,0.0155296,-0.0676929,0.044302,0.0020574,0.0115923,-0.002
 1669,0.0864301,0.0180627,-0.0359598,-0.0757426,0.1019676,-0.0284174,-0
 .0683156,0.0069037,-0.0889927,-0.0927149,0.0266696,-0.0307716,0.054875
 7,0.1125628,-0.0503557,0.0587029,-0.0083595,0.1004882,-0.0793219,0.035
 3289,0.0969774,0.0155221,0.0733167,0.0116437,-0.0152521,0.0138576,-0.0
 170339,0.149533,0.0477456,-0.0646033,0.001551,-0.0360925,-0.0568578,-0
 .0101147,0.0034953,-0.0080126,0.1271057\Polar=108.8570201,0.1923636,96
 .7562043,-4.0357521,2.8799767,55.5330191\Quadrupole=-0.1231558,2.44206
 23,-2.3189065,-0.1617559,-0.1774805,0.3455663\PG=C01 [X(C7H6O1)]\NImag
 =0\\0.28480761,0.19072349,0.97930613,-0.00453400,0.05019230,0.05271259
 ,-0.12712011,-0.28781851,-0.01263694,0.54403627,-0.32640529,-0.6083223
 1,-0.01555389,0.38640691,0.73906085,-0.01531647,-0.01846322,-0.0299075
 2,-0.01016804,0.01848789,0.05519604,-0.03033503,-0.07596471,-0.0034786
 2,-0.33088063,-0.06889795,0.01783929,0.64432469,0.00396910,0.00399819,
 0.00042929,-0.11694849,-0.08474583,0.00505301,0.12913826,0.66834558,0.
 00206925,0.00644549,-0.00619660,0.01450420,0.00143785,-0.03163669,-0.0
 3193506,0.02963850,0.10572913,-0.00594425,0.00509297,0.00015222,-0.053
 29267,0.00431036,0.00506335,-0.12211847,0.09455875,0.01102548,0.622785
 92,-0.01149108,-0.08205482,-0.00422582,0.07753851,0.05055570,-0.003025
 54,0.02787159,-0.24313202,-0.01460706,0.00311594,0.62855804,-0.0010058
 8,-0.00547951,-0.00898016,0.01015315,0.00249286,0.00939091,0.00639315,
 -0.01962761,-0.06468395,-0.03484621,0.03246925,0.16187221,-0.00586712,
 -0.00503535,0.00025890,-0.00014723,0.00450195,0.00044683,-0.05045112,0
 .01007589,0.00511242,-0.26601291,-0.05034824,0.01353229,0.50825943,0.0
 0599740,0.00604096,-0.00019267,-0.00137234,-0.00338929,-0.00024362,0.0
 3880644,0.00688177,-0.00301259,-0.01160843,-0.10962152,-0.00392569,-0.
 07776048,0.33963940,0.00102809,0.00064598,0.00224226,0.00003141,-0.000
 68992,0.00157074,0.00710895,-0.00085077,0.00757495,0.01619040,-0.00100
 769,-0.04141526,-0.03879234,0.02485983,0.06840017,0.00063785,0.0008754
 8,0.00018336,-0.00094467,0.00050758,0.00013994,-0.00105796,-0.00483586
 ,-0.00010004,-0.04469037,0.03198736,0.00514751,-0.11943953,0.04137809,
 0.00763418,0.55919335,-0.00286239,-0.00066407,0.00001425,-0.00078611,-
 0.00102599,-0.00004253,-0.00293159,0.00154828,0.00018513,0.00990838,0.
 00730779,0.00013712,0.07470271,-0.18027505,-0.01419029,0.08273573,0.49
 664212,-0.00007461,-0.00026877,0.00223411,0.00005129,-0.00013938,0.000
 42735,0.00003597,0.00032545,0.00210464,0.00362924,-0.00152659,-0.00586
 096,0.00992000,-0.01167727,-0.05737761,0.00602018,-0.01073354,0.561854
 05,-0.03668945,0.08672760,0.00974567,-0.04449859,-0.03579057,0.0007042
 7,0.04812923,-0.00788790,-0.00371304,-0.13883693,-0.01247483,0.0041621
 0,-0.03266765,-0.04037493,0.00020664,0.00213343,-0.00810385,-0.0008047
 4,0.64978297,0.02276069,0.02672813,-0.00074980,-0.02386571,-0.04405689
 ,-0.00110643,0.03711159,-0.03942395,-0.00595880,-0.07782657,-0.2477742
 7,-0.00633126,-0.01341357,-0.00210752,0.00035105,0.00023046,0.00126918
 ,0.00015126,-0.05150041,0.66682866,0.00530823,-0.00556493,0.01202580,0
 .00152907,-0.00020882,-0.00232898,-0.00058764,-0.00256811,0.00597844,-
 0.00037784,-0.01125612,-0.07288024,0.00208908,0.00238537,0.00741538,-0
 .00023304,0.00077670,-0.00108821,-0.04325740,0.04163266,0.12949700,-0.
 08198573,0.07116162,0.00878762,0.02490657,0.05381438,0.00099227,-0.046
 42786,0.00808146,0.00500427,-0.02129616,-0.07679915,-0.00330224,0.0005
 7885,0.00403552,0.00049290,-0.00037137,0.00033634,-0.00006254,-0.29561
 279,-0.00167522,0.01801449,0.54506014,0.12410878,-0.30983541,-0.028706
 63,-0.03097084,-0.04824891,-0.00021679,0.02342484,-0.01825836,-0.00390
 172,-0.02305238,0.02924300,0.00337772,0.00107167,-0.00971464,-0.000988
 57,0.00196449,0.00003297,-0.00004160,-0.06682418,-0.11066221,0.0011724
 1,0.05887548,0.74758555,0.01246493,-0.02471788,-0.03347284,-0.00489284
 ,-0.00661326,-0.01158343,0.00606967,-0.00274572,0.01190009,0.00042356,
 0.00742370,0.00611975,0.00028465,-0.00120806,0.00322399,0.00005180,0.0
 0007893,-0.00147196,0.01348975,-0.00373409,-0.05637554,-0.02880367,0.0
 3997062,0.11323528,-0.00074305,-0.00223123,0.00058680,-0.01403416,-0.0
 2410353,-0.00089449,-0.10485588,-0.11391910,-0.00235878,0.00915667,0.0
 1508840,0.00070968,0.00123536,-0.00069224,-0.00035044,0.00007594,-0.00
 004270,-0.00006998,-0.00120039,0.00181300,0.00075598,-0.00166474,0.000
 72056,0.00011032,0.11129577,-0.00113847,0.00270139,-0.00035888,-0.0002
 2206,0.00139840,0.00037055,-0.11101730,-0.29005215,-0.00961793,-0.0132
 3317,-0.01651575,-0.00047419,-0.00125240,0.00177563,0.00041041,0.00042
 868,0.00002167,0.00002610,0.00308614,-0.00147012,-0.00083216,0.0010971
 2,0.00034291,0.00000109,0.12310968,0.30221116,0.00066437,-0.00027748,0
 .00903458,0.00076324,0.00217030,-0.00360028,-0.00215904,-0.00940051,-0
 .03162446,-0.00125545,-0.00260714,0.00458127,-0.00038887,0.00036795,-0
 .00272962,-0.00003724,0.00006102,-0.00080371,0.00084470,-0.00073554,0.
 00705675,0.00013482,0.00002976,-0.00087471,0.00172488,0.01027644,0.021
 27532,-0.00040112,0.00003052,0.00003039,-0.00027278,0.00005343,0.00001
 738,-0.00072826,-0.00038761,0.00004455,0.00161597,0.00328601,0.0001323
 0,-0.02729376,0.00044311,0.00211901,-0.27675648,-0.09808522,0.01017306
 ,0.00022405,0.00015500,0.00003502,0.00006436,0.00013937,0.00001402,-0.
 00001545,0.00003938,0.00000414,0.30788012,0.00035619,0.00046411,0.0000
 0702,-0.00012888,0.00002354,0.00001776,0.00115502,0.00028922,-0.000082
 76,0.00212381,-0.00395812,-0.00045788,0.03803050,0.00494510,-0.0025420
 2,-0.11215604,-0.09038114,0.00554960,-0.00038288,-0.00130434,-0.000100
 24,0.00036788,-0.00000814,-0.00003713,-0.00001923,-0.00001862,0.000000
 08,0.09930623,0.09871839,0.00005240,0.00003143,-0.00003341,0.00000511,
 0.00000443,-0.00009185,0.00015059,0.00003375,0.00021546,0.00006006,-0.
 00054891,0.00037345,0.00471216,0.00027162,0.00021856,0.00919960,0.0044
 9662,-0.04994019,-0.00000095,-0.00013998,0.00053876,0.00002974,-0.0000
 1981,0.00012603,0.00000010,-0.00000455,0.00000390,-0.01272242,-0.00373
 220,0.04620075,-0.00004560,-0.00102049,-0.00040826,0.00087564,0.000641
 53,-0.00001661,-0.00120986,0.00074341,-0.00033568,0.00524253,0.0008540
 4,0.00151632,-0.00161378,0.01894764,0.02039524,-0.06378440,-0.03195921
 ,-0.05412230,0.00044798,-0.00090153,-0.00001007,-0.00081253,0.00029709
 ,-0.00006581,0.00002746,-0.00010834,0.00018223,-0.00387913,-0.01232790
 ,-0.02454732,0.06468428,0.00043736,0.00037710,0.00009561,-0.00020778,-
 0.00006651,0.00010506,0.00085245,-0.00062377,0.00028429,-0.00584874,-0
 .00014282,0.00015363,0.00789847,-0.02595536,-0.02418015,-0.02782662,-0
 .10155113,-0.09852425,0.00042078,0.00053142,0.00039524,0.00011915,-0.0
 0002169,-0.00013110,-0.00005801,0.00016046,-0.00016744,-0.00326206,-0.
 00419108,-0.01024871,0.02457655,0.12059994,0.00024422,0.00032489,-0.00
 010771,-0.00021639,0.00026053,0.00003626,0.00041976,-0.00010302,-0.000
 11223,-0.00248725,-0.00058494,0.00061338,0.00645339,-0.00556302,0.0031
 7320,-0.04994893,-0.10197012,-0.23488193,-0.00002463,-0.00105685,-0.00
 013971,0.00008947,0.00021929,0.00014854,-0.00005112,0.00008613,0.00000
 020,0.00034774,0.00238664,0.00259336,0.05184606,0.11663592,0.24812782,
 -0.00002843,-0.00109830,0.00024516,0.00089606,0.00059631,-0.00003156,-
 0.00118181,0.00068175,0.00059424,0.00523544,0.00116965,-0.00207393,-0.
 00512797,0.02174953,-0.01604051,-0.05261040,-0.02066917,0.02525069,0.0
 0043652,-0.00071637,-0.00018180,-0.00079224,0.00023877,0.00024466,0.00
 000581,-0.00009218,-0.00019617,-0.00034661,-0.01590123,0.02311326,0.00
 140410,0.00316401,-0.00705529,0.05368695,0.00045350,0.00041913,-0.0000
 8715,-0.00024090,-0.00001096,-0.00007583,0.00083329,-0.00057331,-0.000
 47635,-0.00605313,-0.00023473,0.00062739,0.01176908,-0.02913220,0.0179
 5025,-0.01655243,-0.13196474,0.11704871,0.00036031,0.00042411,-0.00037
 628,0.00013772,-0.00000246,0.00009076,-0.00003729,0.00014473,0.0001933
 9,-0.00174390,-0.00532365,0.00977874,0.00038238,0.01047263,-0.01147476
 ,0.01093971,0.15523940,-0.00019908,-0.00009150,-0.00016566,0.00005232,
 -0.00035794,-0.00003919,-0.00014515,-0.00006751,-0.00019000,0.00097338
 ,0.00032156,0.00072041,-0.00355651,-0.00224099,0.00985335,0.02164373,0
 .12111456,-0.21560151,-0.00000097,0.00125525,-0.00001951,0.00006901,-0
 .00027963,0.00010768,0.00004467,-0.00005247,0.00003699,-0.00017404,-0.
 00112052,0.00018897,0.00418125,0.01535193,-0.01922825,-0.02266383,-0.1
 3309640,0.22445271,-0.00305912,0.00143913,0.00050208,-0.00269070,0.002
 08496,0.00073340,-0.00188425,-0.00446111,-0.00007330,0.01143027,-0.010
 85827,-0.00150937,-0.00044549,0.00192247,0.00000216,-0.00282679,-0.001
 91675,0.00011901,-0.14404871,0.13342118,0.01786720,-0.01314856,0.02321
 774,0.00290630,0.00053075,-0.00062264,-0.00007502,-0.00005915,-0.00045
 705,-0.00005791,-0.00132635,-0.00031527,0.00032701,-0.00154757,-0.0003
 0706,-0.00017902,0.15802396,-0.00031776,0.00124188,-0.00004775,-0.0018
 3314,0.00111967,-0.00014060,-0.00170175,-0.00424623,-0.00025341,0.0182
 3203,-0.01470227,-0.00249324,0.00011881,0.00084284,0.00020088,0.001077
 63,-0.00073973,-0.00016982,0.13104902,-0.25001792,-0.02516376,-0.00451
 717,0.00449934,0.00037400,0.00068140,-0.00062366,-0.00010190,0.0000460
 7,0.00072205,0.00007530,-0.00012768,0.00037607,0.00083447,-0.00007561,
 0.00050876,-0.00073528,-0.14299589,0.26053167,0.00037955,-0.00018116,0
 .00222988,0.00046219,-0.00043337,0.00506489,0.00011765,-0.00004516,0.0
 0123638,0.00051128,-0.00029809,0.00135237,-0.00012395,0.00006417,-0.00
 216503,0.00032908,0.00005392,0.00053254,0.01770157,-0.02534344,-0.0331
 2264,0.00098052,-0.00171741,0.00382586,0.00001539,-0.00000372,0.000104
 65,-0.00002304,0.00011344,-0.00040518,0.00130441,0.00024370,-0.0002101
 3,-0.00112820,-0.00011311,-0.00012420,-0.02019783,0.02736116,0.0252829
 6,0.00677356,0.01711778,0.00056565,0.00316701,0.00227994,0.00049045,-0
 .00132279,0.00119145,0.00016150,-0.00327503,0.00106005,0.00099113,-0.0
 0100708,-0.00147179,-0.00002569,0.00044143,-0.00032616,-0.00006528,-0.
 00759965,-0.02559253,-0.00095129,-0.10849793,-0.11321137,-0.00229734,0
 .00018591,-0.00007444,-0.00020660,-0.00003176,0.00003358,0.00000558,-0
 .00001034,0.00004970,0.00005596,-0.00002985,0.00005871,-0.00004574,0.0
 0105171,0.00036402,-0.00032862,0.11015480,-0.00659152,-0.02040040,-0.0
 0081588,0.00044933,-0.00229148,-0.00071971,0.00131982,-0.00000742,-0.0
 0008064,0.00028019,0.00247179,-0.00046861,-0.00035903,0.00006986,0.000
 03101,0.00018544,-0.00022015,-0.00001990,0.00169570,0.00103572,-0.0002
 9196,-0.11503513,-0.28495194,-0.00875187,-0.00030971,-0.00007605,0.000
 19107,-0.00002035,0.00002269,0.00000227,0.00000251,0.00003475,0.000004
 83,0.00001314,0.00003331,-0.00000108,-0.00015145,0.00048754,0.00029905
 ,0.11852106,0.30379177,-0.00108099,-0.00259565,-0.00161531,0.00036224,
 -0.00085729,0.00750175,0.00017049,-0.00007159,-0.00029514,0.00093779,-
 0.00052662,0.00879681,0.00005196,0.00011496,0.00001493,-0.00003012,0.0
 0001823,-0.00012660,0.00094702,0.00176598,0.00344271,-0.00242666,-0.00
 889764,-0.03490872,-0.00022302,0.00017317,-0.00246089,0.00000188,-0.00
 000179,0.00001140,0.00008053,-0.00001373,-0.00001281,-0.00007671,0.000
 01063,0.00000821,-0.00036472,0.00025993,-0.00360234,0.00165031,0.01062
 142,0.02324601\\0.00000611,0.00001041,-0.00000023,-0.00001560,-0.00001
 129,-0.00000248,0.00001698,-0.00000849,-0.00000275,0.00003119,0.000033
 69,0.00000005,-0.00003858,0.00002420,0.00000157,0.00003583,-0.00004667
 ,-0.00002949,-0.00004142,-0.00002370,-0.00000118,0.00001747,-0.0000053
 9,0.00001305,-0.00000297,-0.00000331,0.00000122,-0.00000394,0.00000088
 ,0.00001191,-0.00000817,0.00001327,0.00000680,-0.00000106,0.00000659,0
 .00000953,0.00000352,0.00000302,-0.00000197,0.00000063,0.00000678,-0.0
 0000604\\\@


 DEMOCRATS BUY MOST OF THE BOOKS THAT HAVE BEEN
 BANNED; REPUBLICANS FORM CENSORSHIP COMMITTEES AND
 READ THEM AS A GROUP.
 Job cpu time:       0 days  1 hours 28 minutes 57.5 seconds.
 Elapsed time:       0 days  0 hours 12 minutes 42.6 seconds.
 File lengths (MBytes):  RWF=    154 Int=      0 D2E=      0 Chk=      7 Scr=      1
 Normal termination of Gaussian 16 at Sat Nov  5 20:40:47 2016.
