 Entering Gaussian System, Link 0=/home/ubuntu/g16/g16
 Input=s-4-NO2Ph+_UB3LYP-aug-cc-pVDZ-Opt.gjf
 Output=s-4-NO2Ph+_UB3LYP-aug-cc-pVDZ-Opt.log
 Initial command:
 /home/ubuntu/g16/l1.exe "/home/ubuntu/g16/Gau-500.inp" -scrdir="/home/ubuntu/g16/"
 Entering Link 1 = /home/ubuntu/g16/l1.exe PID=       502.
  
 Copyright (c) 1988,1990,1992,1993,1995,1998,2003,2009,2016,
            Gaussian, Inc.  All Rights Reserved.
  
 This is part of the Gaussian(R) 16 program.  It is based on
 the Gaussian(R) 09 system (copyright 2009, Gaussian, Inc.),
 the Gaussian(R) 03 system (copyright 2003, Gaussian, Inc.),
 the Gaussian(R) 98 system (copyright 1998, Gaussian, Inc.),
 the Gaussian(R) 94 system (copyright 1995, Gaussian, Inc.),
 the Gaussian 92(TM) system (copyright 1992, Gaussian, Inc.),
 the Gaussian 90(TM) system (copyright 1990, Gaussian, Inc.),
 the Gaussian 88(TM) system (copyright 1988, Gaussian, Inc.),
 the Gaussian 86(TM) system (copyright 1986, Carnegie Mellon
 University), and the Gaussian 82(TM) system (copyright 1983,
 Carnegie Mellon University). Gaussian is a federally registered
 trademark of Gaussian, Inc.
  
 This software contains proprietary and confidential information,
 including trade secrets, belonging to Gaussian, Inc.
  
 This software is provided under written license and may be
 used, copied, transmitted, or stored only in accord with that
 written license.
  
 The following legend is applicable only to US Government
 contracts under FAR:
  
                    RESTRICTED RIGHTS LEGEND
  
 Use, reproduction and disclosure by the US Government is
 subject to restrictions as set forth in subparagraphs (a)
 and (c) of the Commercial Computer Software - Restricted
 Rights clause in FAR 52.227-19.
  
 Gaussian, Inc.
 340 Quinnipiac St., Bldg. 40, Wallingford CT 06492
  
  
 ---------------------------------------------------------------
 Warning -- This program may not be used in any manner that
 competes with the business of Gaussian, Inc. or will provide
 assistance to any competitor of Gaussian, Inc.  The licensee
 of this program is prohibited from giving any competitor of
 Gaussian, Inc. access to this program.  By using this program,
 the user acknowledges that Gaussian, Inc. is engaged in the
 business of creating and licensing software in the field of
 computational chemistry and represents and warrants to the
 licensee that it is not a competitor of Gaussian, Inc. and that
 it will not use this program in any manner prohibited above.
 ---------------------------------------------------------------
  

 Cite this work as:
 Gaussian 16, Revision A.03,
 M. J. Frisch, G. W. Trucks, H. B. Schlegel, G. E. Scuseria, 
 M. A. Robb, J. R. Cheeseman, G. Scalmani, V. Barone, 
 G. A. Petersson, H. Nakatsuji, X. Li, M. Caricato, A. V. Marenich, 
 J. Bloino, B. G. Janesko, R. Gomperts, B. Mennucci, H. P. Hratchian, 
 J. V. Ortiz, A. F. Izmaylov, J. L. Sonnenberg, D. Williams-Young, 
 F. Ding, F. Lipparini, F. Egidi, J. Goings, B. Peng, A. Petrone, 
 T. Henderson, D. Ranasinghe, V. G. Zakrzewski, J. Gao, N. Rega, 
 G. Zheng, W. Liang, M. Hada, M. Ehara, K. Toyota, R. Fukuda, 
 J. Hasegawa, M. Ishida, T. Nakajima, Y. Honda, O. Kitao, H. Nakai, 
 T. Vreven, K. Throssell, J. A. Montgomery, Jr., J. E. Peralta, 
 F. Ogliaro, M. J. Bearpark, J. J. Heyd, E. N. Brothers, K. N. Kudin, 
 V. N. Staroverov, T. A. Keith, R. Kobayashi, J. Normand, 
 K. Raghavachari, A. P. Rendell, J. C. Burant, S. S. Iyengar, 
 J. Tomasi, M. Cossi, J. M. Millam, M. Klene, C. Adamo, R. Cammi, 
 J. W. Ochterski, R. L. Martin, K. Morokuma, O. Farkas, 
 J. B. Foresman, and D. J. Fox, Gaussian, Inc., Wallingford CT, 2016.
 
 ******************************************
 Gaussian 16:  ES64L-G16RevA.03 25-Dec-2016
                 5-Nov-2016 
 ******************************************
 %chk=s-4-NO2Ph+_UB3LYP-aug-cc-pVDZ-Opt.chk
 %mem=500MW
 %nproc=7
 Will use up to    7 processors via shared memory.
 ----------------------------------------------------------------------
 #p opt=(maxcycles=777) freq ub3lyp/aug-cc-pVDZ pop=(Bonding,AllOrbital
 s,mk,no,nboread)
 ----------------------------------------------------------------------
 1/6=777,18=20,19=15,26=3,38=1/1,3;
 2/9=110,12=2,17=6,18=5,40=1/2;
 3/5=16,7=10,11=2,25=1,30=1,71=1,74=-5,116=2/1,2,3;
 4//1;
 5/5=2,38=5/2;
 6/7=2,8=2,9=2,10=2,15=8,20=1,22=-1,27=20,28=1,31=1,40=2,96=-1/1,2,7;
 7//1,2,3,16;
 1/6=777,18=20,19=15,26=3/3(2);
 2/9=110/2;
 99//99;
 2/9=110/2;
 3/5=16,7=10,11=2,25=1,30=1,71=1,74=-5,116=2/1,2,3;
 4/5=5,16=3,69=1/1;
 5/5=2,38=5/2;
 7//1,2,3,16;
 1/6=777,18=20,19=15,26=3/3(-5);
 2/9=110/2;
 6/7=2,8=2,9=2,10=2,15=8,19=2,20=1,22=-1,27=20,28=1,31=1,40=2,96=-1/1,2,7;
 99/9=1/99;
 Leave Link    1 at Sat Nov  5 22:30:41 2016, MaxMem=   524288000 cpu:               0.3 elap:               0.1
 (Enter /home/ubuntu/g16/l101.exe)
 -----------------------------
 s-4-NO2Ph+_UB3LYP-aug-cc-pVDZ
 -----------------------------
 Symbolic Z-matrix:
 Charge =  1 Multiplicity = 1
 C                    -1.46506  -1.56554  -1.31312 
 C                    -0.04     -1.45745  -1.28066 
 C                     0.17089  -0.22982  -0.81035 
 C                    -0.33466   0.91918  -0.3658 
 C                    -1.74817   0.7147   -0.43418 
 C                    -2.26423  -0.49795  -0.89726 
 H                    -1.90471  -2.49968  -1.67033 
 H                     0.65358  -2.23917  -1.58746 
 H                     0.15042   1.82896  -0.01556 
 H                    -2.40378   1.52806  -0.11406 
 N                    -3.74445  -0.66234  -0.94935 
 O                    -4.40779   0.29099  -0.57495 
 O                    -4.15492  -1.73525  -1.36143 
 
 ITRead=  0  0  0  0  0  0  0  0  0  0  0  0  0
 MicOpt= -1 -1 -1 -1 -1 -1 -1 -1 -1 -1 -1 -1 -1
 NAtoms=     13 NQM=       13 NQMF=       0 NMMI=      0 NMMIF=      0
                NMic=       0 NMicF=      0.
                    Isotopes and Nuclear Properties:
 (Nuclear quadrupole moments (NQMom) in fm**2, nuclear magnetic moments (NMagM)
  in nuclear magnetons)

  Atom         1           2           3           4           5           6           7           8           9          10
 IAtWgt=          12          12          12          12          12          12           1           1           1           1
 AtmWgt=  12.0000000  12.0000000  12.0000000  12.0000000  12.0000000  12.0000000   1.0078250   1.0078250   1.0078250   1.0078250
 NucSpn=           0           0           0           0           0           0           1           1           1           1
 AtZEff=  -0.0000000  -0.0000000  -0.0000000  -0.0000000  -0.0000000  -0.0000000  -0.0000000  -0.0000000  -0.0000000  -0.0000000
 NQMom=    0.0000000   0.0000000   0.0000000   0.0000000   0.0000000   0.0000000   0.0000000   0.0000000   0.0000000   0.0000000
 NMagM=    0.0000000   0.0000000   0.0000000   0.0000000   0.0000000   0.0000000   2.7928460   2.7928460   2.7928460   2.7928460
 AtZNuc=   6.0000000   6.0000000   6.0000000   6.0000000   6.0000000   6.0000000   1.0000000   1.0000000   1.0000000   1.0000000

  Atom        11          12          13
 IAtWgt=          14          16          16
 AtmWgt=  14.0030740  15.9949146  15.9949146
 NucSpn=           2           0           0
 AtZEff=  -0.0000000  -0.0000000  -0.0000000
 NQMom=    2.0440000   0.0000000   0.0000000
 NMagM=    0.4037610   0.0000000   0.0000000
 AtZNuc=   7.0000000   8.0000000   8.0000000
 Leave Link  101 at Sat Nov  5 22:30:41 2016, MaxMem=   524288000 cpu:               1.3 elap:               0.2
 (Enter /home/ubuntu/g16/l103.exe)

 GradGradGradGradGradGradGradGradGradGradGradGradGradGradGradGradGradGrad
 Berny optimization.
 Initialization pass.
                           ----------------------------
                           !    Initial Parameters    !
                           ! (Angstroms and Degrees)  !
 --------------------------                            --------------------------
 ! Name  Definition              Value          Derivative Info.                !
 --------------------------------------------------------------------------------
 ! R1    R(1,2)                  1.4295         estimate D2E/DX2                !
 ! R2    R(1,6)                  1.3969         estimate D2E/DX2                !
 ! R3    R(1,7)                  1.0925         estimate D2E/DX2                !
 ! R4    R(2,3)                  1.3314         estimate D2E/DX2                !
 ! R5    R(2,8)                  1.0892         estimate D2E/DX2                !
 ! R6    R(3,4)                  1.3317         estimate D2E/DX2                !
 ! R7    R(4,5)                  1.4299         estimate D2E/DX2                !
 ! R8    R(4,9)                  1.0889         estimate D2E/DX2                !
 ! R9    R(5,6)                  1.3969         estimate D2E/DX2                !
 ! R10   R(5,10)                 1.0926         estimate D2E/DX2                !
 ! R11   R(6,11)                 1.4902         estimate D2E/DX2                !
 ! R12   R(11,12)                1.2203         estimate D2E/DX2                !
 ! R13   R(11,13)                1.2204         estimate D2E/DX2                !
 ! A1    A(2,1,6)              120.3822         estimate D2E/DX2                !
 ! A2    A(2,1,7)              118.2458         estimate D2E/DX2                !
 ! A3    A(6,1,7)              121.372          estimate D2E/DX2                !
 ! A4    A(1,2,3)              103.6291         estimate D2E/DX2                !
 ! A5    A(1,2,8)              125.0402         estimate D2E/DX2                !
 ! A6    A(3,2,8)              131.3306         estimate D2E/DX2                !
 ! A7    A(2,3,4)              148.5751         estimate D2E/DX2                !
 ! A8    A(3,4,5)              103.6468         estimate D2E/DX2                !
 ! A9    A(3,4,9)              131.2349         estimate D2E/DX2                !
 ! A10   A(5,4,9)              125.1176         estimate D2E/DX2                !
 ! A11   A(4,5,6)              120.3455         estimate D2E/DX2                !
 ! A12   A(4,5,10)             118.2096         estimate D2E/DX2                !
 ! A13   A(6,5,10)             121.4448         estimate D2E/DX2                !
 ! A14   A(1,6,5)              123.4213         estimate D2E/DX2                !
 ! A15   A(1,6,11)             118.2645         estimate D2E/DX2                !
 ! A16   A(5,6,11)             118.3142         estimate D2E/DX2                !
 ! A17   A(6,11,12)            116.2985         estimate D2E/DX2                !
 ! A18   A(6,11,13)            116.2862         estimate D2E/DX2                !
 ! A19   A(12,11,13)           127.4153         estimate D2E/DX2                !
 ! D1    D(6,1,2,3)             -0.0271         estimate D2E/DX2                !
 ! D2    D(6,1,2,8)           -179.904          estimate D2E/DX2                !
 ! D3    D(7,1,2,3)            179.9381         estimate D2E/DX2                !
 ! D4    D(7,1,2,8)              0.0612         estimate D2E/DX2                !
 ! D5    D(2,1,6,5)              0.0077         estimate D2E/DX2                !
 ! D6    D(2,1,6,11)          -179.9317         estimate D2E/DX2                !
 ! D7    D(7,1,6,5)           -179.9564         estimate D2E/DX2                !
 ! D8    D(7,1,6,11)             0.1043         estimate D2E/DX2                !
 ! D9    D(1,2,3,4)             -0.0084         estimate D2E/DX2                !
 ! D10   D(8,2,3,4)            179.8574         estimate D2E/DX2                !
 ! D11   D(2,3,4,5)              0.0539         estimate D2E/DX2                !
 ! D12   D(2,3,4,9)            179.7557         estimate D2E/DX2                !
 ! D13   D(3,4,5,6)             -0.062          estimate D2E/DX2                !
 ! D14   D(3,4,5,10)           179.8164         estimate D2E/DX2                !
 ! D15   D(9,4,5,6)           -179.7878         estimate D2E/DX2                !
 ! D16   D(9,4,5,10)             0.0906         estimate D2E/DX2                !
 ! D17   D(4,5,6,1)              0.0457         estimate D2E/DX2                !
 ! D18   D(4,5,6,11)           179.985          estimate D2E/DX2                !
 ! D19   D(10,5,6,1)          -179.8287         estimate D2E/DX2                !
 ! D20   D(10,5,6,11)            0.1106         estimate D2E/DX2                !
 ! D21   D(1,6,11,12)          179.8327         estimate D2E/DX2                !
 ! D22   D(1,6,11,13)           -0.1559         estimate D2E/DX2                !
 ! D23   D(5,6,11,12)           -0.1098         estimate D2E/DX2                !
 ! D24   D(5,6,11,13)          179.9016         estimate D2E/DX2                !
 --------------------------------------------------------------------------------
 Trust Radius=3.00D-01 FncErr=1.00D-07 GrdErr=1.00D-06 EigMax=2.50D+02 EigMin=1.00D-04
 Number of steps in this run=    100 maximum allowed number of steps=    100.
 GradGradGradGradGradGradGradGradGradGradGradGradGradGradGradGradGradGrad

 Leave Link  103 at Sat Nov  5 22:30:41 2016, MaxMem=   524288000 cpu:               0.0 elap:               0.0
 (Enter /home/ubuntu/g16/l202.exe)
                          Input orientation:                          
 ---------------------------------------------------------------------
 Center     Atomic      Atomic             Coordinates (Angstroms)
 Number     Number       Type             X           Y           Z
 ---------------------------------------------------------------------
      1          6           0       -1.465060   -1.565540   -1.313120
      2          6           0       -0.040000   -1.457450   -1.280660
      3          6           0        0.170890   -0.229820   -0.810350
      4          6           0       -0.334660    0.919180   -0.365800
      5          6           0       -1.748170    0.714700   -0.434180
      6          6           0       -2.264230   -0.497950   -0.897260
      7          1           0       -1.904710   -2.499680   -1.670330
      8          1           0        0.653580   -2.239170   -1.587460
      9          1           0        0.150420    1.828960   -0.015560
     10          1           0       -2.403780    1.528060   -0.114060
     11          7           0       -3.744450   -0.662340   -0.949350
     12          8           0       -4.407790    0.290990   -0.574950
     13          8           0       -4.154920   -1.735250   -1.361430
 ---------------------------------------------------------------------
                    Distance matrix (angstroms):
                    1          2          3          4          5
     1  C    0.000000
     2  C    1.429522   0.000000
     3  C    2.171004   1.331443   0.000000
     4  C    2.889473   2.563623   1.331693   0.000000
     5  C    2.460118   2.890088   2.171730   1.429860   0.000000
     6  C    1.396911   2.452516   2.451378   2.452335   1.396883
     7  H    1.092478   2.171458   3.193735   3.981891   3.447435
     8  H    2.240017   1.089158   2.207799   3.527640   3.977915
     9  H    3.976942   3.526645   2.206963   1.088885   2.240862
    10  H    3.448087   3.982673   3.194352   2.171489   1.092637
    11  N    2.478652   3.803277   3.941609   3.803736   2.479269
    12  O    3.556861   4.757379   4.614214   4.126591   2.696836
    13  O    2.695641   4.125077   4.613311   4.757275   3.557315
                    6          7          8          9         10
     6  C    0.000000
     7  H    2.175733   0.000000
     8  H    3.467252   2.572855   0.000000
     9  H    3.467339   5.069413   4.390185   0.000000
    10  H    2.176601   4.346693   5.070540   2.573748   0.000000
    11  N    1.490231   2.698198   4.715532   4.716837   2.700548
    12  O    2.306764   3.905522   5.748422   4.843093   2.399754
    13  O    2.306745   2.396501   4.840113   5.748992   3.907891
                   11         12         13
    11  N    0.000000
    12  O    1.220260   0.000000
    13  O    1.220423   2.188182   0.000000
 Stoichiometry    C6H4NO2(1+)
 Framework group  C1[X(C6H4NO2)]
 Deg. of freedom    33
 Full point group                 C1      NOp   1
 Largest Abelian subgroup         C1      NOp   1
 Largest concise Abelian subgroup C1      NOp   1
                         Standard orientation:                         
 ---------------------------------------------------------------------
 Center     Atomic      Atomic             Coordinates (Angstroms)
 Number     Number       Type             X           Y           Z
 ---------------------------------------------------------------------
      1          6           0       -0.496648    1.229643    0.000481
      2          6           0       -1.925208    1.282066    0.001427
      3          6           0       -2.286184    0.000491    0.000270
      4          6           0       -1.925959   -1.281555   -0.001440
      5          6           0       -0.497012   -1.230474   -0.001167
      6          6           0        0.165194   -0.000530   -0.000689
      7          1           0        0.055319    2.172427    0.000115
      8          1           0       -2.517426    2.196146    0.000866
      9          1           0       -2.520129   -2.194037    0.001486
     10          1           0        0.053543   -2.174265    0.000700
     11          7           0        1.655425   -0.000114   -0.000076
     12          8           0        2.196362   -1.093922    0.002059
     13          8           0        2.195591    1.094258   -0.001550
 ---------------------------------------------------------------------
 Rotational constants (GHZ):           3.7920838           1.3914658           1.0179432
 Leave Link  202 at Sat Nov  5 22:30:41 2016, MaxMem=   524288000 cpu:               0.0 elap:               0.0
 (Enter /home/ubuntu/g16/l301.exe)
 Standard basis: Aug-CC-pVDZ (5D, 7F)
 Ernie: Thresh=  0.10000D-02 Tol=  0.10000D-05 Strict=F.
 Ernie:  18 primitive shells out of 253 were deleted.
 There are   261 symmetry adapted cartesian basis functions of A   symmetry.
 There are   243 symmetry adapted basis functions of A   symmetry.
   243 basis functions,   431 primitive gaussians,   261 cartesian basis functions
    31 alpha electrons       31 beta electrons
       nuclear repulsion energy       403.0613554648 Hartrees.
 IExCor=  402 DFT=T Ex+Corr=B3LYP ExCW=0 ScaHFX=  0.200000
 ScaDFX=  0.800000  0.720000  1.000000  0.810000 ScalE2=  1.000000  1.000000
 IRadAn=      5 IRanWt=     -1 IRanGd=            0 ICorTp=0 IEmpDi=  4
 NAtoms=   13 NActive=   13 NUniq=   13 SFac= 1.00D+00 NAtFMM=   60 NAOKFM=F Big=F
 Integral buffers will be    131072 words long.
 Raffenetti 2 integral format.
 Two-electron integral symmetry is turned on.
 Leave Link  301 at Sat Nov  5 22:30:41 2016, MaxMem=   524288000 cpu:               0.2 elap:               0.0
 (Enter /home/ubuntu/g16/l302.exe)
 NPDir=0 NMtPBC=     1 NCelOv=     1 NCel=       1 NClECP=     1 NCelD=      1
         NCelK=      1 NCelE2=     1 NClLst=     1 CellRange=     0.0.
 One-electron integrals computed using PRISM.
 One-electron integral symmetry used in STVInt
 NBasis=   243 RedAO= T EigKep=  3.57D-06  NBF=   243
 NBsUse=   243 1.00D-06 EigRej= -1.00D+00 NBFU=   243
 Precomputing XC quadrature grid using
 IXCGrd= 4 IRadAn=           5 IRanWt=          -1 IRanGd=           0 AccXCQ= 0.00D+00.
 Generated NRdTot=       0 NPtTot=           0 NUsed=           0 NTot=          32
 NSgBfM=   261   261   261   261   261 MxSgAt=    13 MxSgA2=    13.
 Leave Link  302 at Sat Nov  5 22:30:41 2016, MaxMem=   524288000 cpu:               2.1 elap:               0.3
 (Enter /home/ubuntu/g16/l303.exe)
 DipDrv:  MaxL=1.
 Leave Link  303 at Sat Nov  5 22:30:41 2016, MaxMem=   524288000 cpu:               0.3 elap:               0.0
 (Enter /home/ubuntu/g16/l401.exe)
 ExpMin= 2.97D-02 ExpMax= 1.17D+04 ExpMxC= 4.01D+02 IAcc=3 IRadAn=         5 AccDes= 0.00D+00
 Harris functional with IExCor=  402 and IRadAn=       5 diagonalized for initial guess.
 HarFok:  IExCor=  402 AccDes= 0.00D+00 IRadAn=         5 IDoV= 1 UseB2=F ITyADJ=14
 ICtDFT=  3500011 ScaDFX=  1.000000  1.000000  1.000000  1.000000
 FoFCou: FMM=F IPFlag=           0 FMFlag=      100000 FMFlg1=           0
         NFxFlg=           0 DoJE=T BraDBF=F KetDBF=T FulRan=T
         wScrn=  0.000000 ICntrl=       500 IOpCl=  0 I1Cent=   200000004 NGrid=           0
         NMat0=    1 NMatS0=      1 NMatT0=    0 NMatD0=    1 NMtDS0=    0 NMtDT0=    0
 Petite list used in FoFCou.
 Harris En= -435.852192988896    
 JPrj=0 DoOrth=F DoCkMO=F.
 Initial guess <Sx>= 0.0000 <Sy>= 0.0000 <Sz>= 0.0000 <S**2>=-0.0000 S=-0.0000
 Leave Link  401 at Sat Nov  5 22:30:43 2016, MaxMem=   524288000 cpu:              13.9 elap:               2.0
 (Enter /home/ubuntu/g16/l502.exe)
 Integral symmetry usage will be decided dynamically.
 UHF open shell SCF:
 Using DIIS extrapolation, IDIIS=  1040.
 NGot=   524288000 LenX=   524147472 LenY=   524078910
 Requested convergence on RMS density matrix=1.00D-08 within 128 cycles.
 Requested convergence on MAX density matrix=1.00D-06.
 Requested convergence on             energy=1.00D-06.
 No special actions if energy rises.
 Fock matrices will be formed incrementally for  20 cycles.

 Cycle   1  Pass 1  IDiag  1:
 FoFJK:  IHMeth= 1 ICntrl=       0 DoSepK=F KAlg= 0 I1Cent=           0 FoldK=F
 IRaf= 990000000 NMat=       1 IRICut=       1 DoRegI=T DoRafI=F ISym2E= 0 IDoP0=0 IntGTp=1.
 FoFCou: FMM=F IPFlag=           0 FMFlag=      100000 FMFlg1=           0
         NFxFlg=           0 DoJE=F BraDBF=F KetDBF=F FulRan=T
         wScrn=  0.000000 ICntrl=         0 IOpCl=  1 I1Cent=           0 NGrid=           0
         NMat0=    1 NMatS0=      1 NMatT0=    0 NMatD0=    1 NMtDS0=    0 NMtDT0=    0
 Symmetry not used in FoFCou.
 E= -435.573874068129    
 DIIS: error= 2.87D-02 at cycle   1 NSaved=   1.
 NSaved= 1 IEnMin= 1 EnMin= -435.573874068129     IErMin= 1 ErrMin= 2.87D-02
 ErrMax= 2.87D-02  0.00D+00 EMaxC= 1.00D-01 BMatC= 1.07D+00 BMatP= 1.07D+00
 IDIUse=3 WtCom= 7.13D-01 WtEn= 2.87D-01
 Coeff-Com:  0.100D+01
 Coeff-En:   0.100D+01
 Coeff:      0.100D+01
 Gap=    -0.059 Goal=   None    Shift=    0.000
 Gap=    -0.059 Goal=   None    Shift=    0.000
 GapD=   -0.059 DampG=0.250 DampE=0.500 DampFc=0.2500 IDamp=-1.
 Damping current iteration by 2.50D-01
 RMSDP=4.84D-02 MaxDP=1.71D+00              OVMax= 6.90D-01

 Cycle   2  Pass 1  IDiag  1:
 RMSU=  4.43D-03    CP:  8.97D-01
 E= -435.564538735098     Delta-E=        0.009335333031 Rises=F Damp=T
 DIIS: error= 1.38D-02 at cycle   2 NSaved=   2.
 NSaved= 2 IEnMin= 1 EnMin= -435.573874068129     IErMin= 2 ErrMin= 1.38D-02
 ErrMax= 1.38D-02  0.00D+00 EMaxC= 1.00D-01 BMatC= 2.06D-01 BMatP= 1.07D+00
 IDIUse=3 WtCom= 8.62D-01 WtEn= 1.38D-01
 Coeff-Com: -0.267D-01 0.103D+01
 Coeff-En:   0.527D+00 0.473D+00
 Coeff:      0.494D-01 0.951D+00
 Gap=     0.031 Goal=   None    Shift=    0.000
 Gap=     0.031 Goal=   None    Shift=    0.000
 RMSDP=3.12D-02 MaxDP=1.21D+00 DE= 9.34D-03 OVMax= 8.03D-01

 Cycle   3  Pass 1  IDiag  1:
 RMSU=  9.47D-03    CP:  6.33D-01  2.71D+00
 E= -435.496027644063     Delta-E=        0.068511091035 Rises=F Damp=F
 DIIS: error= 2.86D-02 at cycle   3 NSaved=   3.
 NSaved= 3 IEnMin= 1 EnMin= -435.573874068129     IErMin= 2 ErrMin= 1.38D-02
 ErrMax= 2.86D-02  0.00D+00 EMaxC= 1.00D-01 BMatC= 9.64D-01 BMatP= 2.06D-01
 IDIUse=2 WtCom= 0.00D+00 WtEn= 1.00D+00
 EnCoef did     2 forward-backward iterations
 Coeff-En:   0.228D+00 0.421D+00 0.352D+00
 Coeff:      0.228D+00 0.421D+00 0.352D+00
 Gap=     0.252 Goal=   None    Shift=    0.000
 Gap=     0.252 Goal=   None    Shift=    0.000
 RMSDP=7.88D-03 MaxDP=3.25D-01 DE= 6.85D-02 OVMax= 3.31D-01

 Cycle   4  Pass 1  IDiag  1:
 RMSU=  5.29D-03    CP:  6.14D-01  2.49D+00  4.35D-01
 E= -435.748048189314     Delta-E=       -0.252020545252 Rises=F Damp=F
 DIIS: error= 1.18D-02 at cycle   4 NSaved=   4.
 NSaved= 4 IEnMin= 4 EnMin= -435.748048189314     IErMin= 4 ErrMin= 1.18D-02
 ErrMax= 1.18D-02  0.00D+00 EMaxC= 1.00D-01 BMatC= 1.99D-01 BMatP= 2.06D-01
 IDIUse=3 WtCom= 8.82D-01 WtEn= 1.18D-01
 EnCoef did   100 forward-backward iterations
 Coeff-Com:  0.275D+00-0.461D-01 0.122D+00 0.649D+00
 Coeff-En:   0.162D+00 0.000D+00 0.369D-02 0.835D+00
 Coeff:      0.261D+00-0.406D-01 0.108D+00 0.671D+00
 Gap=     0.091 Goal=   None    Shift=    0.000
 Gap=     0.091 Goal=   None    Shift=    0.000
 RMSDP=3.11D-03 MaxDP=1.34D-01 DE=-2.52D-01 OVMax= 7.08D-02

 Cycle   5  Pass 1  IDiag  1:
 RMSU=  2.13D-03    CP:  6.29D-01  2.18D+00  4.41D-01  8.38D-01
 E= -435.788121958481     Delta-E=       -0.040073769167 Rises=F Damp=F
 DIIS: error= 3.69D-03 at cycle   5 NSaved=   5.
 NSaved= 5 IEnMin= 5 EnMin= -435.788121958481     IErMin= 5 ErrMin= 3.69D-03
 ErrMax= 3.69D-03  0.00D+00 EMaxC= 1.00D-01 BMatC= 1.42D-02 BMatP= 1.99D-01
 IDIUse=3 WtCom= 9.63D-01 WtEn= 3.69D-02
 Coeff-Com:  0.184D+00-0.165D+00 0.229D-01 0.432D+00 0.527D+00
 Coeff-En:   0.000D+00 0.000D+00 0.000D+00 0.236D-02 0.998D+00
 Coeff:      0.177D+00-0.159D+00 0.221D-01 0.416D+00 0.544D+00
 Gap=     0.075 Goal=   None    Shift=    0.000
 Gap=     0.075 Goal=   None    Shift=    0.000
 RMSDP=1.16D-03 MaxDP=7.86D-02 DE=-4.01D-02 OVMax= 3.98D-02

 Cycle   6  Pass 1  IDiag  1:
 RMSU=  5.77D-04    CP:  6.25D-01  2.26D+00  4.12D-01  9.30D-01  7.05D-01
 E= -435.789376392006     Delta-E=       -0.001254433525 Rises=F Damp=F
 DIIS: error= 3.69D-03 at cycle   6 NSaved=   6.
 NSaved= 6 IEnMin= 6 EnMin= -435.789376392006     IErMin= 5 ErrMin= 3.69D-03
 ErrMax= 3.69D-03  0.00D+00 EMaxC= 1.00D-01 BMatC= 7.71D-03 BMatP= 1.42D-02
 IDIUse=3 WtCom= 9.63D-01 WtEn= 3.69D-02
 Coeff-Com:  0.532D-01-0.699D-01 0.254D-01 0.640D-01 0.314D+00 0.614D+00
 Coeff-En:   0.000D+00 0.000D+00 0.000D+00 0.000D+00 0.410D+00 0.590D+00
 Coeff:      0.512D-01-0.674D-01 0.245D-01 0.616D-01 0.317D+00 0.613D+00
 Gap=     0.093 Goal=   None    Shift=    0.000
 Gap=     0.093 Goal=   None    Shift=    0.000
 RMSDP=6.57D-04 MaxDP=3.33D-02 DE=-1.25D-03 OVMax= 1.65D-02

 Cycle   7  Pass 1  IDiag  1:
 RMSU=  2.56D-04    CP:  6.28D-01  2.23D+00  4.39D-01  8.69D-01  7.65D-01
                    CP:  8.12D-01
 E= -435.791862014318     Delta-E=       -0.002485622313 Rises=F Damp=F
 DIIS: error= 7.58D-04 at cycle   7 NSaved=   7.
 NSaved= 7 IEnMin= 7 EnMin= -435.791862014318     IErMin= 7 ErrMin= 7.58D-04
 ErrMax= 7.58D-04  0.00D+00 EMaxC= 1.00D-01 BMatC= 6.95D-04 BMatP= 7.71D-03
 IDIUse=3 WtCom= 9.92D-01 WtEn= 7.58D-03
 Coeff-Com:  0.254D-01-0.401D-01 0.151D-01 0.779D-02 0.123D+00 0.266D+00
 Coeff-Com:  0.603D+00
 Coeff-En:   0.000D+00 0.000D+00 0.000D+00 0.000D+00 0.000D+00 0.000D+00
 Coeff-En:   0.100D+01
 Coeff:      0.253D-01-0.398D-01 0.150D-01 0.774D-02 0.122D+00 0.264D+00
 Coeff:      0.606D+00
 Gap=     0.094 Goal=   None    Shift=    0.000
 Gap=     0.094 Goal=   None    Shift=    0.000
 RMSDP=1.50D-04 MaxDP=8.22D-03 DE=-2.49D-03 OVMax= 6.12D-03

 Cycle   8  Pass 1  IDiag  1:
 RMSU=  1.23D-04    CP:  6.28D-01  2.23D+00  4.47D-01  8.65D-01  7.48D-01
                    CP:  7.93D-01  9.08D-01
 E= -435.791942106896     Delta-E=       -0.000080092578 Rises=F Damp=F
 DIIS: error= 5.66D-04 at cycle   8 NSaved=   8.
 NSaved= 8 IEnMin= 8 EnMin= -435.791942106896     IErMin= 8 ErrMin= 5.66D-04
 ErrMax= 5.66D-04  0.00D+00 EMaxC= 1.00D-01 BMatC= 4.61D-04 BMatP= 6.95D-04
 IDIUse=3 WtCom= 9.94D-01 WtEn= 5.66D-03
 Coeff-Com:  0.108D-01-0.201D-01 0.708D-02-0.848D-02 0.632D-02 0.193D-02
 Coeff-Com:  0.544D+00 0.458D+00
 Coeff-En:   0.000D+00 0.000D+00 0.000D+00 0.000D+00 0.000D+00 0.000D+00
 Coeff-En:   0.231D+00 0.769D+00
 Coeff:      0.108D-01-0.200D-01 0.704D-02-0.843D-02 0.628D-02 0.191D-02
 Coeff:      0.543D+00 0.460D+00
 Gap=     0.095 Goal=   None    Shift=    0.000
 Gap=     0.095 Goal=   None    Shift=    0.000
 RMSDP=8.28D-05 MaxDP=2.74D-03 DE=-8.01D-05 OVMax= 5.22D-03

 Cycle   9  Pass 1  IDiag  1:
 RMSU=  6.42D-05    CP:  6.28D-01  2.23D+00  4.51D-01  8.60D-01  7.41D-01
                    CP:  7.88D-01  9.68D-01  9.06D-01
 E= -435.792027173171     Delta-E=       -0.000085066274 Rises=F Damp=F
 DIIS: error= 3.30D-04 at cycle   9 NSaved=   9.
 NSaved= 9 IEnMin= 9 EnMin= -435.792027173171     IErMin= 9 ErrMin= 3.30D-04
 ErrMax= 3.30D-04  0.00D+00 EMaxC= 1.00D-01 BMatC= 1.09D-04 BMatP= 4.61D-04
 IDIUse=3 WtCom= 9.97D-01 WtEn= 3.30D-03
 Coeff-Com:  0.306D-02-0.669D-02 0.287D-02-0.848D-02-0.287D-01-0.876D-01
 Coeff-Com:  0.251D+00 0.375D+00 0.500D+00
 Coeff-En:   0.000D+00 0.000D+00 0.000D+00 0.000D+00 0.000D+00 0.000D+00
 Coeff-En:   0.000D+00 0.102D-01 0.990D+00
 Coeff:      0.305D-02-0.666D-02 0.286D-02-0.845D-02-0.286D-01-0.873D-01
 Coeff:      0.250D+00 0.374D+00 0.502D+00
 Gap=     0.096 Goal=   None    Shift=    0.000
 Gap=     0.096 Goal=   None    Shift=    0.000
 RMSDP=5.70D-05 MaxDP=1.49D-03 DE=-8.51D-05 OVMax= 1.79D-03

 Cycle  10  Pass 1  IDiag  1:
 RMSU=  3.17D-05    CP:  6.28D-01  2.23D+00  4.53D-01  8.55D-01  7.44D-01
                    CP:  7.84D-01  1.05D+00  8.66D-01  7.26D-01
 E= -435.792055798089     Delta-E=       -0.000028624919 Rises=F Damp=F
 DIIS: error= 9.17D-05 at cycle  10 NSaved=  10.
 NSaved=10 IEnMin=10 EnMin= -435.792055798089     IErMin=10 ErrMin= 9.17D-05
 ErrMax= 9.17D-05  0.00D+00 EMaxC= 1.00D-01 BMatC= 9.29D-06 BMatP= 1.09D-04
 IDIUse=1 WtCom= 1.00D+00 WtEn= 0.00D+00
 Coeff-Com:  0.756D-03-0.108D-02 0.835D-03-0.183D-02-0.154D-01-0.541D-01
 Coeff-Com:  0.282D-01 0.111D+00 0.250D+00 0.682D+00
 Coeff:      0.756D-03-0.108D-02 0.835D-03-0.183D-02-0.154D-01-0.541D-01
 Coeff:      0.282D-01 0.111D+00 0.250D+00 0.682D+00
 Gap=     0.096 Goal=   None    Shift=    0.000
 Gap=     0.096 Goal=   None    Shift=    0.000
 RMSDP=2.62D-05 MaxDP=1.46D-03 DE=-2.86D-05 OVMax= 5.10D-04

 Cycle  11  Pass 1  IDiag  1:
 RMSU=  9.27D-06    CP:  6.28D-01  2.23D+00  4.54D-01  8.54D-01  7.42D-01
                    CP:  7.77D-01  1.08D+00  9.44D-01  7.99D-01  8.90D-01
 E= -435.792058491352     Delta-E=       -0.000002693263 Rises=F Damp=F
 DIIS: error= 2.11D-05 at cycle  11 NSaved=  11.
 NSaved=11 IEnMin=11 EnMin= -435.792058491352     IErMin=11 ErrMin= 2.11D-05
 ErrMax= 2.11D-05  0.00D+00 EMaxC= 1.00D-01 BMatC= 4.64D-07 BMatP= 9.29D-06
 IDIUse=1 WtCom= 1.00D+00 WtEn= 0.00D+00
 Coeff-Com:  0.364D-03-0.426D-03 0.152D-03 0.297D-03-0.361D-02-0.155D-01
 Coeff-Com: -0.127D-01 0.116D-01 0.590D-01 0.276D+00 0.685D+00
 Coeff:      0.364D-03-0.426D-03 0.152D-03 0.297D-03-0.361D-02-0.155D-01
 Coeff:     -0.127D-01 0.116D-01 0.590D-01 0.276D+00 0.685D+00
 Gap=     0.096 Goal=   None    Shift=    0.000
 Gap=     0.096 Goal=   None    Shift=    0.000
 RMSDP=5.49D-06 MaxDP=1.74D-04 DE=-2.69D-06 OVMax= 1.36D-04

 Cycle  12  Pass 1  IDiag  1:
 RMSU=  3.11D-06    CP:  6.28D-01  2.23D+00  4.54D-01  8.54D-01  7.42D-01
                    CP:  7.77D-01  1.09D+00  9.46D-01  7.99D-01  8.90D-01
                    CP:  7.72D-01
 E= -435.792058628296     Delta-E=       -0.000000136944 Rises=F Damp=F
 DIIS: error= 7.19D-06 at cycle  12 NSaved=  12.
 NSaved=12 IEnMin=12 EnMin= -435.792058628296     IErMin=12 ErrMin= 7.19D-06
 ErrMax= 7.19D-06  0.00D+00 EMaxC= 1.00D-01 BMatC= 4.17D-08 BMatP= 4.64D-07
 IDIUse=1 WtCom= 1.00D+00 WtEn= 0.00D+00
 Coeff-Com:  0.418D-04-0.375D-04 0.187D-04 0.152D-03 0.597D-04 0.680D-04
 Coeff-Com: -0.573D-02-0.632D-02-0.728D-02-0.702D-03 0.163D+00 0.857D+00
 Coeff:      0.418D-04-0.375D-04 0.187D-04 0.152D-03 0.597D-04 0.680D-04
 Coeff:     -0.573D-02-0.632D-02-0.728D-02-0.702D-03 0.163D+00 0.857D+00
 Gap=     0.097 Goal=   None    Shift=    0.000
 Gap=     0.097 Goal=   None    Shift=    0.000
 RMSDP=2.01D-06 MaxDP=6.48D-05 DE=-1.37D-07 OVMax= 5.70D-05

 Cycle  13  Pass 1  IDiag  1:
 RMSU=  7.57D-07    CP:  6.28D-01  2.23D+00  4.54D-01  8.53D-01  7.41D-01
                    CP:  7.76D-01  1.09D+00  9.49D-01  8.03D-01  9.02D-01
                    CP:  8.15D-01  9.79D-01
 E= -435.792058640686     Delta-E=       -0.000000012390 Rises=F Damp=F
 DIIS: error= 1.98D-06 at cycle  13 NSaved=  13.
 NSaved=13 IEnMin=13 EnMin= -435.792058640686     IErMin=13 ErrMin= 1.98D-06
 ErrMax= 1.98D-06  0.00D+00 EMaxC= 1.00D-01 BMatC= 2.34D-09 BMatP= 4.17D-08
 IDIUse=1 WtCom= 1.00D+00 WtEn= 0.00D+00
 Coeff-Com:  0.200D-04-0.177D-04 0.904D-05 0.905D-04 0.122D-03 0.380D-03
 Coeff-Com: -0.322D-02-0.419D-02-0.592D-02-0.783D-02 0.855D-01 0.524D+00
 Coeff-Com:  0.411D+00
 Coeff:      0.200D-04-0.177D-04 0.904D-05 0.905D-04 0.122D-03 0.380D-03
 Coeff:     -0.322D-02-0.419D-02-0.592D-02-0.783D-02 0.855D-01 0.524D+00
 Coeff:      0.411D+00
 Gap=     0.097 Goal=   None    Shift=    0.000
 Gap=     0.097 Goal=   None    Shift=    0.000
 RMSDP=3.71D-07 MaxDP=1.16D-05 DE=-1.24D-08 OVMax= 1.29D-05

 Cycle  14  Pass 1  IDiag  1:
 RMSU=  3.15D-07    CP:  6.28D-01  2.23D+00  4.54D-01  8.53D-01  7.41D-01
                    CP:  7.76D-01  1.09D+00  9.49D-01  8.03D-01  9.01D-01
                    CP:  8.17D-01  9.89D-01  7.89D-01
 E= -435.792058641325     Delta-E=       -0.000000000639 Rises=F Damp=F
 DIIS: error= 6.18D-07 at cycle  14 NSaved=  14.
 NSaved=14 IEnMin=14 EnMin= -435.792058641325     IErMin=14 ErrMin= 6.18D-07
 ErrMax= 6.18D-07  0.00D+00 EMaxC= 1.00D-01 BMatC= 2.71D-10 BMatP= 2.34D-09
 IDIUse=1 WtCom= 1.00D+00 WtEn= 0.00D+00
 Coeff-Com:  0.353D-05-0.646D-05 0.141D-06 0.145D-04 0.587D-04 0.167D-03
 Coeff-Com: -0.132D-03-0.469D-03-0.123D-02-0.470D-02 0.204D-02 0.342D-01
 Coeff-Com:  0.244D+00 0.726D+00
 Coeff:      0.353D-05-0.646D-05 0.141D-06 0.145D-04 0.587D-04 0.167D-03
 Coeff:     -0.132D-03-0.469D-03-0.123D-02-0.470D-02 0.204D-02 0.342D-01
 Coeff:      0.244D+00 0.726D+00
 Gap=     0.097 Goal=   None    Shift=    0.000
 Gap=     0.097 Goal=   None    Shift=    0.000
 RMSDP=1.37D-07 MaxDP=4.01D-06 DE=-6.39D-10 OVMax= 4.60D-06

 Cycle  15  Pass 1  IDiag  1:
 RMSU=  5.98D-08    CP:  6.28D-01  2.23D+00  4.54D-01  8.53D-01  7.41D-01
                    CP:  7.76D-01  1.09D+00  9.48D-01  8.03D-01  9.01D-01
                    CP:  8.19D-01  9.96D-01  8.91D-01  8.57D-01
 E= -435.792058641399     Delta-E=       -0.000000000074 Rises=F Damp=F
 DIIS: error= 9.78D-08 at cycle  15 NSaved=  15.
 NSaved=15 IEnMin=15 EnMin= -435.792058641399     IErMin=15 ErrMin= 9.78D-08
 ErrMax= 9.78D-08  0.00D+00 EMaxC= 1.00D-01 BMatC= 8.79D-12 BMatP= 2.71D-10
 IDIUse=1 WtCom= 1.00D+00 WtEn= 0.00D+00
 Coeff-Com:  0.685D-06-0.187D-05-0.270D-06 0.861D-06 0.120D-04 0.225D-04
 Coeff-Com:  0.172D-03 0.117D-03-0.217D-04-0.883D-03-0.471D-02-0.274D-01
 Coeff-Com:  0.321D-01 0.169D+00 0.832D+00
 Coeff:      0.685D-06-0.187D-05-0.270D-06 0.861D-06 0.120D-04 0.225D-04
 Coeff:      0.172D-03 0.117D-03-0.217D-04-0.883D-03-0.471D-02-0.274D-01
 Coeff:      0.321D-01 0.169D+00 0.832D+00
 Gap=     0.097 Goal=   None    Shift=    0.000
 Gap=     0.097 Goal=   None    Shift=    0.000
 RMSDP=4.57D-08 MaxDP=2.21D-06 DE=-7.42D-11 OVMax= 1.23D-06

 Cycle  16  Pass 1  IDiag  1:
 RMSU=  2.28D-08    CP:  6.28D-01  2.23D+00  4.54D-01  8.53D-01  7.41D-01
                    CP:  7.76D-01  1.09D+00  9.48D-01  8.03D-01  9.01D-01
                    CP:  8.19D-01  1.00D+00  9.13D-01  8.89D-01  8.33D-01
 E= -435.792058641393     Delta-E=        0.000000000006 Rises=F Damp=F
 DIIS: error= 5.09D-08 at cycle  16 NSaved=  16.
 NSaved=16 IEnMin=15 EnMin= -435.792058641399     IErMin=16 ErrMin= 5.09D-08
 ErrMax= 5.09D-08  0.00D+00 EMaxC= 1.00D-01 BMatC= 1.95D-12 BMatP= 8.79D-12
 IDIUse=1 WtCom= 1.00D+00 WtEn= 0.00D+00
 Coeff-Com:  0.431D-07-0.250D-06 0.621D-07-0.547D-06-0.557D-06-0.772D-05
 Coeff-Com:  0.804D-04 0.777D-04 0.601D-04-0.923D-04-0.202D-02-0.145D-01
 Coeff-Com:  0.227D-02 0.429D-01 0.458D+00 0.513D+00
 Coeff:      0.431D-07-0.250D-06 0.621D-07-0.547D-06-0.557D-06-0.772D-05
 Coeff:      0.804D-04 0.777D-04 0.601D-04-0.923D-04-0.202D-02-0.145D-01
 Coeff:      0.227D-02 0.429D-01 0.458D+00 0.513D+00
 Gap=     0.097 Goal=   None    Shift=    0.000
 Gap=     0.097 Goal=   None    Shift=    0.000
 RMSDP=1.34D-08 MaxDP=5.47D-07 DE= 6.48D-12 OVMax= 4.19D-07

 Cycle  17  Pass 1  IDiag  1:
 RMSU=  7.38D-09    CP:  6.28D-01  2.23D+00  4.54D-01  8.53D-01  7.41D-01
                    CP:  7.76D-01  1.09D+00  9.48D-01  8.03D-01  9.01D-01
                    CP:  8.19D-01  1.00D+00  9.12D-01  8.89D-01  8.63D-01
                    CP:  7.05D-01
 E= -435.792058641422     Delta-E=       -0.000000000029 Rises=F Damp=F
 DIIS: error= 7.44D-09 at cycle  17 NSaved=  17.
 NSaved=17 IEnMin=17 EnMin= -435.792058641422     IErMin=17 ErrMin= 7.44D-09
 ErrMax= 7.44D-09  0.00D+00 EMaxC= 1.00D-01 BMatC= 5.95D-14 BMatP= 1.95D-12
 IDIUse=1 WtCom= 1.00D+00 WtEn= 0.00D+00
 Coeff-Com:  0.117D-06-0.155D-06 0.753D-08-0.390D-07-0.149D-05-0.390D-05
 Coeff-Com:  0.185D-05 0.325D-05 0.899D-05 0.763D-04 0.537D-04-0.254D-03
 Coeff-Com: -0.338D-02-0.103D-01-0.142D-01 0.113D+00 0.915D+00
 Coeff:      0.117D-06-0.155D-06 0.753D-08-0.390D-07-0.149D-05-0.390D-05
 Coeff:      0.185D-05 0.325D-05 0.899D-05 0.763D-04 0.537D-04-0.254D-03
 Coeff:     -0.338D-02-0.103D-01-0.142D-01 0.113D+00 0.915D+00
 Gap=     0.097 Goal=   None    Shift=    0.000
 Gap=     0.097 Goal=   None    Shift=    0.000
 RMSDP=2.80D-09 MaxDP=9.30D-08 DE=-2.91D-11 OVMax= 1.70D-07

 SCF Done:  E(UB3LYP) =  -435.792058641     A.U. after   17 cycles
            NFock= 17  Conv=0.28D-08     -V/T= 2.0060
 <Sx>= 0.0000 <Sy>= 0.0000 <Sz>= 0.0000 <S**2>=-0.0000 S=-0.0000
 <L.S>= 0.000000000000E+00
 KE= 4.331782693484D+02 PE=-1.810279928448D+03 EE= 5.382482449937D+02
 Annihilation of the first spin contaminant:
 S**2 before annihilation    -0.0000,   after    -0.0000
 Leave Link  502 at Sat Nov  5 22:33:07 2016, MaxMem=   524288000 cpu:            1004.6 elap:             143.5
 (Enter /home/ubuntu/g16/l601.exe)
 Copying SCF densities to generalized density rwf, IOpCl= 1 IROHF=0.

 **********************************************************************

            Population analysis using the SCF density.

 **********************************************************************

 Orbital symmetries:
 Alpha Orbitals:
       Occupied  (A) (A) (A) (A) (A) (A) (A) (A) (A) (A) (A) (A)
                 (A) (A) (A) (A) (A) (A) (A) (A) (A) (A) (A) (A)
                 (A) (A) (A) (A) (A) (A) (A)
       Virtual   (A) (A) (A) (A) (A) (A) (A) (A) (A) (A) (A) (A)
                 (A) (A) (A) (A) (A) (A) (A) (A) (A) (A) (A) (A)
                 (A) (A) (A) (A) (A) (A) (A) (A) (A) (A) (A) (A)
                 (A) (A) (A) (A) (A) (A) (A) (A) (A) (A) (A) (A)
                 (A) (A) (A) (A) (A) (A) (A) (A) (A) (A) (A) (A)
                 (A) (A) (A) (A) (A) (A) (A) (A) (A) (A) (A) (A)
                 (A) (A) (A) (A) (A) (A) (A) (A) (A) (A) (A) (A)
                 (A) (A) (A) (A) (A) (A) (A) (A) (A) (A) (A) (A)
                 (A) (A) (A) (A) (A) (A) (A) (A) (A) (A) (A) (A)
                 (A) (A) (A) (A) (A) (A) (A) (A) (A) (A) (A) (A)
                 (A) (A) (A) (A) (A) (A) (A) (A) (A) (A) (A) (A)
                 (A) (A) (A) (A) (A) (A) (A) (A) (A) (A) (A) (A)
                 (A) (A) (A) (A) (A) (A) (A) (A) (A) (A) (A) (A)
                 (A) (A) (A) (A) (A) (A) (A) (A) (A) (A) (A) (A)
                 (A) (A) (A) (A) (A) (A) (A) (A) (A) (A) (A) (A)
                 (A) (A) (A) (A) (A) (A) (A) (A) (A) (A) (A) (A)
                 (A) (A) (A) (A) (A) (A) (A) (A) (A) (A) (A) (A)
                 (A) (A) (A) (A) (A) (A) (A) (A)
 Beta  Orbitals:
       Occupied  (A) (A) (A) (A) (A) (A) (A) (A) (A) (A) (A) (A)
                 (A) (A) (A) (A) (A) (A) (A) (A) (A) (A) (A) (A)
                 (A) (A) (A) (A) (A) (A) (A)
       Virtual   (A) (A) (A) (A) (A) (A) (A) (A) (A) (A) (A) (A)
                 (A) (A) (A) (A) (A) (A) (A) (A) (A) (A) (A) (A)
                 (A) (A) (A) (A) (A) (A) (A) (A) (A) (A) (A) (A)
                 (A) (A) (A) (A) (A) (A) (A) (A) (A) (A) (A) (A)
                 (A) (A) (A) (A) (A) (A) (A) (A) (A) (A) (A) (A)
                 (A) (A) (A) (A) (A) (A) (A) (A) (A) (A) (A) (A)
                 (A) (A) (A) (A) (A) (A) (A) (A) (A) (A) (A) (A)
                 (A) (A) (A) (A) (A) (A) (A) (A) (A) (A) (A) (A)
                 (A) (A) (A) (A) (A) (A) (A) (A) (A) (A) (A) (A)
                 (A) (A) (A) (A) (A) (A) (A) (A) (A) (A) (A) (A)
                 (A) (A) (A) (A) (A) (A) (A) (A) (A) (A) (A) (A)
                 (A) (A) (A) (A) (A) (A) (A) (A) (A) (A) (A) (A)
                 (A) (A) (A) (A) (A) (A) (A) (A) (A) (A) (A) (A)
                 (A) (A) (A) (A) (A) (A) (A) (A) (A) (A) (A) (A)
                 (A) (A) (A) (A) (A) (A) (A) (A) (A) (A) (A) (A)
                 (A) (A) (A) (A) (A) (A) (A) (A) (A) (A) (A) (A)
                 (A) (A) (A) (A) (A) (A) (A) (A) (A) (A) (A) (A)
                 (A) (A) (A) (A) (A) (A) (A) (A)
 The electronic state is 1-A.
     Natural Orbital Coefficients:
                           1         2         3         4         5
     Eigenvalues --     2.00000   2.00000   2.00000   2.00000   2.00000
   1 1   C  1S         -0.01141  -0.07497  -0.12458  -0.18450   0.04513
   2        2S         -0.02713   0.01293   0.14634  -0.01368   0.06127
   3        3S         -0.12722   0.13790   0.56077  -0.05168   0.21766
   4        4S          0.10996  -0.45350  -0.54976   0.00734   0.29021
   5        5PX        -0.02554  -0.05557   0.04081  -0.13417  -0.03493
   6        5PY         0.05672   0.03669  -0.09399   0.12675  -0.13427
   7        5PZ        -0.10933  -0.05324  -0.03316  -0.02729  -0.02252
   8        6PX        -0.06045   0.26481   0.19839   0.19169   0.20955
   9        6PY         0.09969  -0.23709  -0.39681  -0.04946  -0.18537
  10        6PZ        -0.05865  -0.02991  -0.01922  -0.01100   0.00230
  11        7PX        -0.06585   0.05445  -0.29723  -0.35195  -0.02672
  12        7PY        -0.00155   0.09050   0.22481   0.14053  -0.01385
  13        7PZ         0.02217   0.00340   0.00320  -0.00566   0.00000
  14        8D 0       -0.00053   0.00450  -0.00282  -0.00263  -0.00236
  15        8D+1        0.01607   0.00449   0.00205  -0.00331  -0.00451
  16        8D-1        0.00304   0.00122   0.00166   0.00211   0.00611
  17        8D+2        0.00017   0.00114  -0.00205   0.00513   0.00063
  18        8D-2        0.00367   0.00344  -0.00051   0.01119  -0.00986
  19        9D 0       -0.00691   0.01133   0.00561  -0.01063   0.00384
  20        9D+1        0.00930   0.00274   0.00185  -0.00382  -0.00862
  21        9D-1        0.01518   0.00330   0.00273  -0.00494  -0.00541
  22        9D+2        0.03868  -0.13174  -0.10432  -0.04463  -0.08662
  23        9D-2       -0.01173  -0.05841  -0.06917  -0.10963   0.01713
  24 2   C  1S          0.00087  -0.11567   0.08330  -0.10864   0.36969
  25        2S          0.03454  -0.15414  -0.07531   0.04870   0.07312
  26        3S          0.03034  -0.09543  -0.13255   0.14527   0.04128
  27        4S         -0.16387   0.66029   0.77097   0.03672  -0.24688
  28        5PX        -0.01357   0.15762   0.09859   0.10474   0.02865
  29        5PY         0.01437  -0.03812  -0.10036  -0.05750   0.04915
  30        5PZ        -0.29060  -0.08392  -0.04407   0.03988   0.03256
  31        6PX        -0.04883   0.26819   0.13597   0.18020   0.16947
  32        6PY        -0.06932   0.28277   0.24976   0.04687   0.09985
  33        6PZ        -0.11946  -0.03849  -0.01690   0.01181   0.01752
  34        7PX        -0.03339  -0.00138  -0.25630  -0.24974  -0.02470
  35        7PY         0.00338  -0.08650  -0.24164  -0.13631   0.01598
  36        7PZ        -0.02523  -0.00569  -0.00387   0.00485   0.00052
  37        8D 0        0.00015   0.00257  -0.00043  -0.00071  -0.00264
  38        8D+1       -0.00107  -0.00214  -0.00124  -0.00284  -0.00099
  39        8D-1        0.02486   0.00483   0.00318  -0.00574   0.00033
  40        8D+2       -0.00023   0.00802   0.00645   0.00519   0.00432
  41        8D-2        0.00190   0.00249  -0.00230   0.00575  -0.00933
  42        9D 0        0.00449  -0.01110  -0.00299   0.00678   0.00214
  43        9D+1        0.00836   0.00143   0.00139  -0.00296  -0.00230
  44        9D-1       -0.01162  -0.00226  -0.00232   0.00297   0.00027
  45        9D+2       -0.01883   0.07716   0.03802   0.02695   0.04974
  46        9D-2        0.00502  -0.08827  -0.08136  -0.07776   0.02330
  47 3   C  1S          0.01057   0.02170   0.00969  -0.02490  -0.08254
  48        2S         -0.03293   0.03404   0.01424  -0.03427  -0.00645
  49        3S         -0.07936   0.14510   0.00621  -0.08011  -0.01472
  50        4S          0.11916  -0.31098  -0.01834   0.26168   0.12643
  51        5PX         0.01268  -0.04054  -0.01192   0.01895  -0.02226
  52        5PY         0.04641  -0.16877  -0.02262   0.07985  -0.03543
  53        5PZ        -0.42188  -0.07485  -0.05121   0.10603  -0.01141
  54        6PX         0.00555  -0.01258  -0.00616   0.00070   0.00657
  55        6PY        -0.07383   0.46290   0.45376   0.23234   0.17375
  56        6PZ        -0.21728  -0.03753  -0.02553   0.05741   0.00284
  57        7PX         0.03208  -0.07758  -0.00839   0.07188   0.02708
  58        7PY        -0.00716  -0.20706  -0.73730  -0.45580   0.03402
  59        7PZ         0.02382   0.00450   0.00342  -0.00455   0.00367
  60        8D 0       -0.00119   0.00580  -0.00125  -0.00332  -0.00137
  61        8D+1       -0.01217  -0.00240  -0.00206   0.00197  -0.00256
  62        8D-1       -0.00329  -0.00429  -0.00090  -0.00216   0.00688
  63        8D+2        0.00021   0.00094  -0.00180  -0.00277  -0.00271
  64        8D-2       -0.00059   0.01020   0.00936   0.01336   0.00537
  65        9D 0       -0.00300   0.01248  -0.00271  -0.00622  -0.00761
  66        9D+1       -0.00961  -0.00185  -0.00182   0.00200   0.00032
  67        9D-1       -0.00051  -0.00095  -0.00051  -0.00039   0.00103
  68        9D+2        0.00033   0.00989  -0.00420  -0.00967  -0.00613
  69        9D-2       -0.02479   0.07647   0.04453  -0.02676   0.03986
  70 4   C  1S          0.00718  -0.07989  -0.04337  -0.06160   0.15690
  71        2S          0.02093  -0.05715   0.12629   0.08255   0.02288
  72        3S          0.05961  -0.08080   0.12084   0.10913  -0.13062
  73        4S         -0.19598   0.21309  -0.68130  -0.83162  -0.09092
  74        5PX         0.03220  -0.19373  -0.11751  -0.10119  -0.09268
  75        5PY        -0.04960   0.08923  -0.12498  -0.17272  -0.02933
  76        5PZ        -0.23641  -0.01347  -0.02941   0.07547  -0.08071
  77        6PX         0.10556  -0.39367  -0.15175   0.02803  -0.20137
  78        6PY        -0.03123   0.20388   0.25916   0.11761   0.09947
  79        6PZ        -0.08867   0.00070  -0.01056   0.03149  -0.04727
  80        7PX        -0.03040   0.15189   0.28197   0.10188  -0.02930
  81        7PY        -0.00710  -0.05311  -0.23592  -0.16020  -0.00409
  82        7PZ        -0.02363  -0.00347  -0.00399   0.00540  -0.00314
  83        8D 0       -0.00073   0.00215  -0.00152  -0.00061   0.00092
  84        8D+1        0.00169   0.00138  -0.00066  -0.00110  -0.00683
  85        8D-1       -0.02417  -0.00391  -0.00302   0.00613  -0.00178
  86        8D+2        0.00275  -0.01128  -0.00439  -0.00419  -0.00321
  87        8D-2        0.00986  -0.02014  -0.00339   0.01938  -0.00510
  88        9D 0       -0.00188   0.00393   0.00426  -0.00354   0.00725
  89        9D+1        0.00878   0.00129   0.00085  -0.00272  -0.00300
  90        9D-1        0.01216   0.00226   0.00199  -0.00238  -0.00124
  91        9D+2        0.02112  -0.07824  -0.04030   0.00804  -0.05047
  92        9D-2       -0.01889  -0.02614  -0.08394  -0.11588  -0.01634
  93 5   C  1S         -0.05392   0.09578   0.17944   0.24105  -0.19871
  94        2S          0.01563  -0.04821  -0.08108  -0.05303  -0.04747
  95        3S          0.16525  -0.24125  -0.50231   0.02065  -0.18632
  96        4S          0.27771  -0.56324   0.43158   0.82200   0.07723
  97        5PX        -0.03939   0.20641  -0.02364  -0.00497   0.05258
  98        5PY         0.11086  -0.19571  -0.10148   0.21456  -0.06633
  99        5PZ        -0.06144   0.00784  -0.02265   0.00290  -0.12319
 100        6PX         0.14195  -0.42594  -0.20022   0.06784  -0.25885
 101        6PY         0.10678  -0.20001  -0.37278  -0.04618  -0.19956
 102        6PZ        -0.03238   0.00583  -0.01025   0.00671  -0.05284
 103        7PX        -0.03578   0.16463   0.33298   0.13875  -0.03453
 104        7PY         0.01289   0.03891   0.21987   0.16438   0.01625
 105        7PZ         0.02297   0.00469   0.00382  -0.00498  -0.00161
 106        8D 0       -0.00088   0.00368   0.00105   0.00130   0.00062
 107        8D+1        0.01304   0.00052   0.00114  -0.00532   0.00178
 108        8D-1       -0.00281  -0.00094  -0.00156  -0.00193  -0.00657
 109        8D+2        0.00199  -0.00465  -0.00102   0.00239  -0.00382
 110        8D-2        0.00656  -0.01252  -0.00083   0.01728  -0.00135
 111        9D 0        0.00171   0.00049  -0.00677   0.00598  -0.01313
 112        9D+1        0.00805   0.00013   0.00027  -0.00489  -0.00602
 113        9D-1       -0.01502  -0.00192  -0.00169   0.00511   0.00487
 114        9D+2       -0.05614   0.15077   0.11749  -0.01686   0.10525
 115        9D-2       -0.01373  -0.02347  -0.04681  -0.11289  -0.01984
 116 6   C  1S          0.01292  -0.05387  -0.02847  -0.18153   0.09485
 117        2S         -0.00880  -0.10013   0.00548  -0.04893   0.06170
 118        3S         -0.06313  -0.03920  -0.02181  -0.13669   0.09842
 119        4S         -0.15011   0.45996   0.02420  -0.29524  -0.19414
 120        5PX        -0.03469   0.06397  -0.03659  -0.04517  -0.01888
 121        5PY        -0.09195   0.02091   0.18057  -0.17897   0.11432
 122        5PZ        -0.00789  -0.01216  -0.02496  -0.05462  -0.13054
 123        6PX        -0.01233   0.05839  -0.00685   0.00626  -0.03429
 124        6PY         0.13987  -0.47761  -0.57442  -0.25838  -0.32943
 125        6PZ         0.03411   0.00010  -0.00815  -0.03440  -0.05716
 126        7PX         0.07750  -0.19012  -0.02596   0.15189   0.04260
 127        7PY         0.04786   0.00434   0.60174   0.41452  -0.05978
 128        7PZ        -0.02182  -0.00419  -0.00397   0.00501   0.00197
 129        8D 0        0.00029   0.00311   0.00072   0.00291  -0.00119
 130        8D+1        0.00800   0.00179   0.00190  -0.00274  -0.00435
 131        8D-1       -0.00223  -0.00271  -0.00028  -0.00135   0.00470
 132        8D+2        0.00252  -0.00976  -0.00534   0.00551   0.00030
 133        8D-2        0.00681  -0.00761  -0.01603   0.01227  -0.00488
 134        9D 0        0.00174  -0.00460  -0.00053  -0.00100   0.00644
 135        9D+1       -0.00624   0.00007   0.00111   0.01044   0.02609
 136        9D-1       -0.00102  -0.00009   0.00145  -0.00022   0.00217
 137        9D+2        0.02047  -0.04698   0.01430   0.05801  -0.01772
 138        9D-2       -0.07680   0.11483   0.28203  -0.03388   0.09704
 139 7   H  1S          0.02283  -0.00148   0.03638   0.04814  -0.08763
 140        2S          0.04465   0.01988   0.13212   0.13070  -0.17155
 141        3S          0.00718  -0.01909  -0.01858   0.01076   0.00088
 142        4PX        -0.00062  -0.00203  -0.00050  -0.00242   0.00172
 143        4PY         0.00079   0.00006  -0.00571   0.00140   0.00083
 144        4PZ        -0.00393  -0.00186  -0.00110  -0.00088  -0.00064
 145        5PX        -0.00490   0.01525   0.00374   0.00832   0.02294
 146        5PY        -0.01025  -0.01411  -0.03158  -0.04016   0.03202
 147        5PZ        -0.00776  -0.00192  -0.00099   0.00239   0.00406
 148 8   H  1S          0.03173  -0.18120  -0.14984  -0.06272   0.06043
 149        2S          0.02459  -0.23431  -0.28383  -0.14701   0.11019
 150        3S         -0.00529   0.01289   0.02453  -0.00884  -0.00215
 151        4PX         0.00161  -0.00481  -0.00469   0.00117   0.00258
 152        4PY        -0.00273   0.01242   0.00865   0.00067  -0.00166
 153        4PZ        -0.01013  -0.00302  -0.00154   0.00134   0.00132
 154        5PX        -0.00067  -0.01441  -0.02608  -0.01439   0.01198
 155        5PY        -0.00208   0.04040   0.05535   0.03758  -0.02009
 156        5PZ         0.00813   0.00106   0.00135  -0.00206   0.00161
 157 9   H  1S          0.03994  -0.02160   0.19968   0.22607   0.06185
 158        2S          0.09349  -0.05639   0.29951   0.42370   0.02031
 159        3S         -0.00117   0.00025  -0.01390  -0.00835   0.00008
 160        4PX         0.00163  -0.00436   0.00712   0.00574   0.00141
 161        4PY         0.00019   0.00246   0.01243   0.00904   0.00492
 162        4PZ        -0.00809  -0.00037  -0.00104   0.00264  -0.00298
 163        5PX         0.00887  -0.00612   0.02639   0.04305  -0.00159
 164        5PY         0.01976  -0.01369   0.05727   0.08574   0.00243
 165        5PZ         0.00905   0.00213   0.00127  -0.00161  -0.00043
 166 10  H  1S         -0.08733   0.20016   0.00853  -0.19859   0.05455
 167        2S         -0.15654   0.33972  -0.06412  -0.40507   0.09326
 168        3S          0.00305  -0.00169   0.01237   0.01207   0.01107
 169        4PX         0.00269  -0.00274  -0.00160   0.00670  -0.00096
 170        4PY        -0.00227   0.00708  -0.00272  -0.00695   0.00124
 171        4PZ        -0.00221   0.00025  -0.00081   0.00020  -0.00425
 172        5PX         0.02494  -0.06251  -0.01104   0.03803  -0.02145
 173        5PY        -0.03021   0.05757  -0.01901  -0.08993   0.01535
 174        5PZ        -0.00666  -0.00070  -0.00088   0.00307   0.00179
 175 11  N  1S         -0.01906   0.00614   0.00731   0.11703  -0.03369
 176        2S         -0.00022  -0.02377  -0.02303  -0.04196   0.02902
 177        3S         -0.02579   0.02991   0.00674  -0.08523   0.04903
 178        4S         -0.02299   0.04826   0.05420  -0.04617   0.04207
 179        5PX         0.01242   0.02749   0.04158   0.00820   0.00622
 180        5PY        -0.00713   0.10673  -0.17139   0.14767   0.25187
 181        5PZ         0.04625   0.00855   0.00884  -0.07441  -0.21288
 182        6PX        -0.00466   0.03622   0.03301   0.00625  -0.00738
 183        6PY         0.02135   0.07637  -0.15280   0.09135   0.04242
 184        6PZ         0.02211   0.00365   0.00349  -0.03825  -0.10913
 185        7PX        -0.02062   0.06170   0.00698  -0.03562  -0.01397
 186        7PY         0.00367   0.06463  -0.09897   0.02430   0.02091
 187        7PZ         0.00577   0.00123   0.00175  -0.00464  -0.01356
 188        8D 0       -0.00114   0.00200   0.00198   0.00084  -0.00076
 189        8D+1        0.00030   0.00048   0.00106   0.00012  -0.00177
 190        8D-1       -0.00041   0.00147   0.00301   0.00077   0.00115
 191        8D+2       -0.00779   0.00567   0.00339  -0.00890   0.00227
 192        8D-2       -0.00008   0.00393  -0.01240  -0.00120   0.01476
 193        9D 0        0.00045  -0.00037  -0.00306  -0.00106  -0.00032
 194        9D+1        0.00010   0.00073   0.00143   0.00714   0.02062
 195        9D-1       -0.00001   0.00032   0.00067   0.00023   0.00012
 196        9D+2        0.00188  -0.01354  -0.00155   0.00205   0.00269
 197        9D-2        0.01315  -0.01928  -0.00900  -0.00576  -0.05138
 198 12  O  1S         -0.01263  -0.03984   0.08088  -0.05934  -0.03889
 199        2S          0.05885   0.05557  -0.18906   0.06638  -0.07110
 200        3S          0.08678   0.07516  -0.30122   0.13669  -0.06990
 201        4S          0.02788   0.02995  -0.15344   0.07755   0.01494
 202        5PX        -0.02745   0.06434  -0.04096   0.13028   0.06023
 203        5PY        -0.01710  -0.09890   0.22215  -0.07628  -0.13204
 204        5PZ         0.01880  -0.00885  -0.02019  -0.03746  -0.10849
 205        6PX        -0.01939   0.02638   0.00026   0.06368   0.01521
 206        6PY        -0.00047  -0.05083   0.08385  -0.01210  -0.07615
 207        6PZ         0.00970  -0.00652  -0.01397  -0.02162  -0.06284
 208        7PX        -0.00151  -0.00642   0.01567   0.01296   0.00009
 209        7PY         0.00112  -0.01073  -0.00385   0.00957  -0.00027
 210        7PZ        -0.00182  -0.00205  -0.00358  -0.00021  -0.00041
 211        8D 0        0.00005   0.00261  -0.00439   0.00420   0.00371
 212        8D+1       -0.00080   0.00003   0.00026   0.00144   0.00415
 213        8D-1        0.00158   0.00002  -0.00026  -0.00253  -0.00729
 214        8D+2        0.00036   0.00101  -0.00452   0.00060   0.00233
 215        8D-2       -0.00095   0.00497  -0.00449   0.00693   0.00737
 216        9D 0       -0.00030  -0.00029   0.00202   0.00139   0.00078
 217        9D+1       -0.00146   0.00003   0.00047   0.00137   0.00377
 218        9D-1        0.00107  -0.00022  -0.00060  -0.00297  -0.00880
 219        9D+2       -0.00206   0.00332   0.00182  -0.00706   0.00383
 220        9D-2       -0.00104   0.00107   0.00177  -0.00045  -0.00007
 221 13  O  1S         -0.00076   0.03341  -0.10701   0.04938   0.01557
 222        2S          0.00403  -0.14737   0.05665  -0.02374   0.03033
 223        3S         -0.00092  -0.22034   0.12838  -0.05956   0.01484
 224        4S          0.00181  -0.11605   0.08237  -0.02443  -0.03524
 225        5PX        -0.05308  -0.00018   0.05279  -0.21402  -0.05704
 226        5PY         0.01247  -0.14688   0.15942  -0.00472  -0.18160
 227        5PZ         0.01301   0.01932   0.03520  -0.02262  -0.09050
 228        6PX        -0.03840   0.02955   0.01278  -0.13083  -0.00877
 229        6PY         0.01274  -0.06306   0.06386   0.02040  -0.09855
 230        6PZ         0.00580   0.01225   0.02291  -0.01171  -0.05074
 231        7PX        -0.00231   0.00110  -0.01068  -0.01724   0.00428
 232        7PY        -0.00076   0.00516   0.00366   0.00373  -0.00003
 233        7PZ        -0.00252   0.00143   0.00333   0.00172   0.00182
 234        8D 0       -0.00013  -0.00243   0.00381  -0.00244  -0.00522
 235        8D+1       -0.00068  -0.00033  -0.00054   0.00125   0.00380
 236        8D-1       -0.00145  -0.00071  -0.00109   0.00218   0.00688
 237        8D+2        0.00081  -0.00327   0.00242   0.00302  -0.00437
 238        8D-2        0.00081   0.00229  -0.00629   0.00666   0.00852
 239        9D 0       -0.00008   0.00021   0.00036  -0.00027  -0.00036
 240        9D+1       -0.00111  -0.00061  -0.00118   0.00103   0.00286
 241        9D-1       -0.00086  -0.00064  -0.00112   0.00252   0.00818
 242        9D+2        0.00296  -0.00266  -0.00184   0.00926  -0.00552
 243        9D-2        0.00139  -0.00494   0.00015   0.00215   0.00037
                           6         7         8         9        10
     Eigenvalues --     2.00000   2.00000   2.00000   2.00000   2.00000
   1 1   C  1S         -0.07837  -0.24633  -0.00655   0.05954   0.07717
   2        2S          0.03803  -0.00743   0.02719  -0.02597  -0.02994
   3        3S          0.15480   0.13455   0.02689  -0.05467  -0.14823
   4        4S          0.15506   0.06129  -0.14175  -0.02487  -0.52543
   5        5PX        -0.04086   0.00016  -0.03645  -0.13898   0.08505
   6        5PY        -0.09058  -0.04164  -0.01760  -0.00101   0.18710
   7        5PZ         0.07306  -0.00313  -0.16461   0.02862  -0.04147
   8        6PX         0.10130  -0.03453  -0.14997   0.00735  -0.08561
   9        6PY        -0.09396  -0.01796   0.05874   0.00390   0.06344
  10        6PZ         0.02098   0.00372  -0.07993   0.00264  -0.01967
  11        7PX        -0.05612   0.10236  -0.04759  -0.07263  -0.08602
  12        7PY         0.01348  -0.05294   0.05765   0.06613   0.09100
  13        7PZ         0.00579   0.00063  -0.00247  -0.00372  -0.00018
  14        8D 0       -0.00266  -0.00066  -0.00097  -0.00079   0.00324
  15        8D+1       -0.00031   0.00041  -0.00565   0.01093  -0.00332
  16        8D-1       -0.00476   0.00104   0.01198  -0.00962   0.00429
  17        8D+2       -0.00148  -0.00278  -0.00598   0.00284  -0.00039
  18        8D-2       -0.00255   0.00236   0.00242   0.00988   0.01002
  19        9D 0       -0.00018   0.00155  -0.00520  -0.00293   0.00443
  20        9D+1        0.01100  -0.00291  -0.00359   0.00664  -0.00138
  21        9D-1        0.00948  -0.00150  -0.00355   0.00299  -0.00092
  22        9D+2       -0.04066  -0.00159   0.04185  -0.03877   0.03805
  23        9D-2        0.00947   0.02705   0.02084   0.01927  -0.05927
  24 2   C  1S          0.06585  -0.42601  -0.03664   0.04500  -0.19677
  25        2S          0.04324  -0.00226  -0.00743   0.01754  -0.09269
  26        3S          0.07400   0.17822  -0.08182   0.06994  -0.06326
  27        4S         -0.08156  -0.06341   0.23135   0.18176   0.40601
  28        5PX         0.03583  -0.01249   0.04621   0.11750  -0.03856
  29        5PY        -0.02568  -0.04942  -0.07360  -0.12779  -0.06147
  30        5PZ         0.04989  -0.01711   0.02203  -0.12855   0.03124
  31        6PX         0.07155  -0.07777  -0.09551   0.06257  -0.08324
  32        6PY         0.03870  -0.10968   0.03057   0.09815  -0.02248
  33        6PZ         0.03886  -0.00903   0.01188  -0.07583   0.01809
  34        7PX        -0.04602   0.08304  -0.05602  -0.06955  -0.05309
  35        7PY        -0.01349   0.05108  -0.05249  -0.05570  -0.08681
  36        7PZ        -0.00098  -0.00119   0.00027  -0.00133   0.00060
  37        8D 0       -0.00199  -0.00137  -0.00024  -0.00104   0.00328
  38        8D+1        0.00419   0.00033  -0.01070   0.00204  -0.00283
  39        8D-1       -0.00056   0.00229  -0.00638   0.00442  -0.00272
  40        8D+2        0.00266  -0.00252   0.00233   0.00041  -0.00310
  41        8D-2       -0.00409   0.00002   0.00258   0.00231   0.01341
  42        9D 0        0.00196  -0.00217   0.00278   0.00277  -0.00142
  43        9D+1        0.00436  -0.00029  -0.00379   0.00258  -0.00109
  44        9D-1       -0.00365  -0.00008   0.00063   0.00099  -0.00015
  45        9D+2        0.01231  -0.03611  -0.03443   0.01261  -0.01752
  46        9D-2        0.00273   0.02620  -0.01888  -0.03085  -0.04893
  47 3   C  1S          0.02675  -0.00600   0.01435   0.03123   0.07918
  48        2S         -0.00083   0.00982  -0.00069   0.03523  -0.01590
  49        3S         -0.03829   0.00999  -0.03744   0.06576  -0.03644
  50        4S          0.07614  -0.06669   0.01325  -0.03246  -0.12262
  51        5PX         0.00352   0.03948   0.00051   0.03898   0.00223
  52        5PY         0.03423   0.06347   0.05615   0.06205   0.05922
  53        5PZ        -0.00298  -0.04108   0.13118  -0.06322   0.04985
  54        6PX         0.00222   0.00174  -0.00690   0.01708  -0.02137
  55        6PY         0.07012  -0.25456   0.02217   0.10444   0.02688
  56        6PZ        -0.01226  -0.01859   0.07566  -0.03909   0.02837
  57        7PX         0.01653  -0.01858  -0.00062  -0.00626  -0.03225
  58        7PY        -0.05349   0.17221  -0.17291  -0.16183  -0.23828
  59        7PZ         0.00162   0.00151   0.00626  -0.00856   0.00235
  60        8D 0       -0.00190  -0.00037  -0.00051  -0.00072   0.00312
  61        8D+1        0.00079  -0.00118  -0.00239   0.00341  -0.00090
  62        8D-1        0.00574   0.00095  -0.00110  -0.01613   0.00235
  63        8D+2        0.00006   0.00496   0.00221   0.00353   0.00049
  64        8D-2        0.00665  -0.00095   0.00799   0.01299  -0.00602
  65        9D 0       -0.00470   0.00277  -0.00275   0.00183   0.00783
  66        9D+1       -0.00371   0.00035  -0.00255   0.00337  -0.00113
  67        9D-1        0.00127   0.00016   0.00006  -0.00357   0.00040
  68        9D+2       -0.00343   0.00222  -0.00269   0.00342   0.00542
  69        9D-2        0.00052  -0.04149  -0.01808  -0.00475  -0.01812
  70 4   C  1S          0.05414  -0.07109   0.00435   0.12801  -0.14821
  71        2S          0.00500  -0.08099  -0.02971  -0.03589   0.03391
  72        3S         -0.12169  -0.14818  -0.09139  -0.09428   0.19327
  73        4S         -0.12377   0.28428  -0.25069  -0.12170  -0.02743
  74        5PX        -0.05101   0.07795  -0.06264  -0.06408   0.11170
  75        5PY        -0.05256   0.04838  -0.05171  -0.02460  -0.04622
  76        5PZ        -0.04407  -0.03301   0.04045   0.13555  -0.00753
  77        6PX        -0.10292   0.07215  -0.01904  -0.08399   0.12953
  78        6PY         0.04738  -0.12947   0.02264   0.04959   0.01407
  79        6PZ        -0.01241  -0.01839   0.02374   0.06789  -0.00352
  80        7PX         0.01125  -0.04527   0.04912   0.06778   0.12777
  81        7PY        -0.02705   0.05424  -0.06743  -0.05970  -0.06851
  82        7PZ        -0.00369  -0.00162   0.00099   0.00589  -0.00059
  83        8D 0        0.00054   0.00158   0.00059  -0.00081  -0.00150
  84        8D+1       -0.00044  -0.00050  -0.00963   0.01498  -0.00478
  85        8D-1       -0.00064  -0.00247   0.00662  -0.00108   0.00222
  86        8D+2       -0.00151   0.00048  -0.00176  -0.00380   0.00585
  87        8D-2        0.00245   0.00219   0.00715   0.00390   0.00486
  88        9D 0        0.00101  -0.00568  -0.00325  -0.00180  -0.00546
  89        9D+1        0.00496  -0.00071  -0.00294   0.00092  -0.00103
  90        9D-1        0.00382  -0.00034   0.00017  -0.00123  -0.00002
  91        9D+2       -0.02448   0.02298  -0.00085  -0.01285   0.01170
  92        9D-2       -0.01794   0.05488  -0.02278  -0.01355  -0.01368
  93 5   C  1S         -0.00526   0.31297  -0.25315  -0.43673  -0.46280
  94        2S         -0.00849   0.01318  -0.00730   0.01788  -0.00569
  95        3S         -0.08063  -0.06639   0.05177   0.15642   0.14579
  96        4S          0.11317  -0.19825   0.24730   0.02125   0.10524
  97        5PX         0.03638  -0.02598   0.08139   0.11026  -0.12172
  98        5PY         0.02737   0.03614   0.14178   0.06372  -0.01087
  99        5PZ        -0.00707  -0.01774  -0.14645   0.25298  -0.07520
 100        6PX        -0.11606   0.07248   0.03578   0.01025   0.10433
 101        6PY        -0.12244  -0.02019  -0.03010   0.02727   0.10456
 102        6PZ        -0.02751  -0.00330  -0.07254   0.13871  -0.03905
 103        7PX         0.01302  -0.05345   0.05345   0.06402   0.19272
 104        7PY         0.03531  -0.05511   0.07843   0.06866   0.06760
 105        7PZ         0.00359   0.00062  -0.00273   0.00258  -0.00099
 106        8D 0       -0.00068  -0.00086  -0.00174  -0.00052   0.00242
 107        8D+1        0.00506   0.00127  -0.00659  -0.00416  -0.00115
 108        8D-1        0.00433  -0.00109  -0.01192   0.01089  -0.00448
 109        8D+2       -0.00403  -0.00083  -0.00517  -0.00488   0.01066
 110        8D-2        0.00315  -0.00341   0.01025   0.00412   0.00231
 111        9D 0       -0.00550   0.00273   0.00038  -0.00060   0.00177
 112        9D+1        0.01493  -0.00278  -0.00285  -0.00469   0.00002
 113        9D-1       -0.01143   0.00175   0.00279   0.00229   0.00047
 114        9D+2        0.06930   0.00642   0.03186   0.04346  -0.08414
 115        9D-2       -0.01772   0.02643  -0.02879   0.01650   0.00410
 116 6   C  1S         -0.05625   0.02049  -0.09999   0.06128   0.27336
 117        2S          0.06042   0.00734   0.10941   0.00664  -0.08950
 118        3S          0.10607  -0.00084   0.27313  -0.02894  -0.19874
 119        4S         -0.14355   0.02476  -0.07226   0.02668   0.15373
 120        5PX        -0.05473  -0.04739  -0.04735  -0.03880   0.08647
 121        5PY         0.02573   0.00637  -0.11255  -0.14640  -0.03189
 122        5PZ         0.10546  -0.02069  -0.24545   0.20337  -0.08972
 123        6PX        -0.04483   0.00370  -0.07621   0.01348   0.08647
 124        6PY        -0.19491   0.01251   0.04116   0.02802   0.10823
 125        6PZ         0.03890  -0.00261  -0.13669   0.11057  -0.05058
 126        7PX         0.04030  -0.01276   0.00933   0.01778  -0.07975
 127        7PY         0.02018  -0.12979   0.14147   0.05635   0.30949
 128        7PZ        -0.01274   0.00214  -0.00972   0.01190  -0.00431
 129        8D 0       -0.00085  -0.00037  -0.00116  -0.00087   0.00295
 130        8D+1        0.01311  -0.00341   0.00795  -0.00874   0.00362
 131        8D-1        0.00346   0.00073  -0.00101  -0.00962   0.00150
 132        8D+2       -0.00118  -0.00032  -0.00357  -0.00092  -0.00002
 133        8D-2       -0.00045  -0.00042  -0.00357   0.00202   0.01332
 134        9D 0        0.00240  -0.00225   0.00324  -0.00211  -0.00094
 135        9D+1       -0.03672   0.00930   0.01965  -0.01354   0.00589
 136        9D-1       -0.00093   0.00087  -0.00179   0.00264   0.00023
 137        9D+2        0.01349   0.03753   0.00008   0.02846  -0.00416
 138        9D-2        0.04718   0.01799  -0.00186  -0.00138  -0.06173
 139 7   H  1S         -0.05833  -0.02476  -0.01009  -0.05827   0.14767
 140        2S         -0.08899  -0.03752   0.04337  -0.05071   0.25798
 141        3S         -0.00086  -0.00555  -0.01206  -0.00656  -0.00858
 142        4PX         0.00076   0.00004  -0.00347   0.00058  -0.00332
 143        4PY         0.00134   0.00104   0.00131   0.00508  -0.00437
 144        4PZ         0.00251  -0.00011  -0.00540   0.00076  -0.00130
 145        5PX         0.00821  -0.00354  -0.02225   0.00890  -0.02687
 146        5PY         0.01602   0.00928  -0.00920  -0.00016  -0.05098
 147        5PZ        -0.00480   0.00110   0.00175  -0.00271   0.00087
 148 8   H  1S         -0.00437  -0.01198  -0.07453  -0.12515  -0.08681
 149        2S         -0.00326   0.01375  -0.16192  -0.18485  -0.15633
 150        3S         -0.00294  -0.00152   0.00228  -0.00660   0.00947
 151        4PX         0.00061  -0.00087  -0.00144  -0.00265  -0.00393
 152        4PY         0.00006  -0.00026   0.00257   0.00537   0.00293
 153        4PZ         0.00188  -0.00057   0.00080  -0.00491   0.00117
 154        5PX        -0.00348  -0.00643  -0.02436  -0.02285  -0.01168
 155        5PY         0.00234  -0.00394   0.03122   0.04061   0.03161
 156        5PZ         0.00152   0.00067  -0.00006  -0.00301   0.00042
 157 9   H  1S          0.06067  -0.10467   0.05412   0.03071   0.00473
 158        2S          0.06287  -0.14603   0.12441   0.07419   0.06197
 159        3S         -0.00078   0.00083  -0.00955  -0.00593   0.00346
 160        4PX         0.00154  -0.00333   0.00046  -0.00103   0.00269
 161        4PY         0.00295  -0.00675   0.00105  -0.00008  -0.00137
 162        4PZ        -0.00167  -0.00114   0.00150   0.00504  -0.00029
 163        5PX         0.00581  -0.00895   0.01791   0.01118   0.00298
 164        5PY         0.01412  -0.02614   0.02915   0.01819   0.01823
 165        5PZ         0.00018   0.00041   0.00046   0.00075  -0.00023
 166 10  H  1S         -0.00418  -0.02437  -0.06717   0.01850  -0.05366
 167        2S         -0.00720   0.00825  -0.13549   0.02660  -0.11899
 168        3S          0.00502  -0.00999   0.01096   0.00681  -0.00497
 169        4PX         0.00112   0.00228   0.00532   0.00120  -0.00300
 170        4PY        -0.00013  -0.00225  -0.00035   0.00296  -0.00177
 171        4PZ        -0.00023  -0.00065  -0.00467   0.00841  -0.00248
 172        5PX        -0.00634   0.00405   0.00589  -0.00890   0.02883
 173        5PY        -0.00751   0.00071  -0.03898  -0.00707  -0.01612
 174        5PZ        -0.00640   0.00073   0.00229   0.00162   0.00020
 175 11  N  1S         -0.01044   0.16820   0.05977  -0.00678  -0.24884
 176        2S         -0.00866  -0.00839  -0.01434  -0.04884  -0.03175
 177        3S         -0.01563  -0.02971  -0.04589  -0.09371   0.04324
 178        4S          0.01255   0.00157  -0.02346  -0.06626   0.04716
 179        5PX         0.02454   0.02443   0.04025   0.00163  -0.01368
 180        5PY         0.21024   0.14512  -0.14965   0.00180   0.13350
 181        5PZ         0.39744  -0.11214   0.03656  -0.06659   0.03079
 182        6PX         0.00388   0.02726  -0.00737   0.00271   0.02246
 183        6PY         0.02598  -0.05960  -0.04137  -0.03027   0.00723
 184        6PZ         0.19923  -0.05570   0.00953  -0.02565   0.01222
 185        7PX        -0.01363   0.00523  -0.00751  -0.00251   0.01674
 186        7PY         0.01297  -0.02038  -0.00735   0.01938  -0.04732
 187        7PZ         0.02981  -0.00850   0.01042  -0.01179   0.00535
 188        8D 0        0.00009   0.00058  -0.00025   0.00067   0.00476
 189        8D+1        0.00846  -0.00293   0.01096  -0.01010   0.00457
 190        8D-1       -0.00360   0.00098  -0.00274   0.01086  -0.00069
 191        8D+2        0.00231  -0.00286   0.01397  -0.00323   0.01047
 192        8D-2        0.01829   0.03316   0.01492   0.01141   0.00513
 193        9D 0        0.00010  -0.00333   0.00575   0.00171  -0.00430
 194        9D+1       -0.02931   0.00795   0.01306  -0.00904   0.00379
 195        9D-1       -0.00080   0.00014  -0.00049   0.00253  -0.00028
 196        9D+2        0.00769  -0.00348   0.02115   0.00694  -0.01499
 197        9D-2       -0.03588  -0.02827   0.03523   0.01144  -0.01449
 198 12  O  1S         -0.02501   0.15565   0.00463  -0.04414   0.10081
 199        2S         -0.07680  -0.19518   0.05446  -0.06025  -0.14950
 200        3S         -0.06983  -0.26284   0.07284  -0.05203  -0.19036
 201        4S          0.01540  -0.04951   0.02062   0.01685  -0.05995
 202        5PX         0.03188  -0.15387  -0.11523  -0.04377   0.14126
 203        5PY        -0.13110  -0.14104  -0.02806  -0.03345  -0.00233
 204        5PZ         0.24460  -0.07034   0.09248  -0.17786   0.04216
 205        6PX        -0.00130  -0.10171  -0.07486  -0.02791   0.09742
 206        6PY        -0.07382  -0.11030  -0.01850  -0.01258  -0.00516
 207        6PZ         0.14432  -0.04162   0.05867  -0.11428   0.02612
 208        7PX        -0.00220  -0.02084  -0.01588  -0.00177   0.01692
 209        7PY        -0.00180  -0.01580  -0.01181   0.00080   0.00355
 210        7PZ         0.00348  -0.00108   0.00489  -0.01402   0.00153
 211        8D 0        0.00330   0.00156  -0.00288   0.00041   0.00254
 212        8D+1       -0.00799   0.00226  -0.00116   0.00275  -0.00073
 213        8D-1        0.01493  -0.00423   0.00342  -0.00615   0.00188
 214        8D+2        0.00274   0.00601   0.00088   0.00245  -0.00066
 215        8D-2        0.00651   0.00161  -0.00545   0.00056   0.00648
 216        9D 0        0.00072   0.00011  -0.00171  -0.00053   0.00178
 217        9D+1       -0.00792   0.00228  -0.00275   0.00510  -0.00122
 218        9D-1        0.01706  -0.00485   0.00274  -0.00617   0.00164
 219        9D+2        0.00336   0.01091   0.00344   0.00118  -0.00443
 220        9D-2       -0.00016   0.00144  -0.00238  -0.00074   0.00556
 221 13  O  1S         -0.02682  -0.06932  -0.01504  -0.06722   0.10752
 222        2S          0.05097   0.16512  -0.02161   0.11446   0.00075
 223        3S          0.05501   0.20986   0.01158   0.16130  -0.03250
 224        4S         -0.01630   0.02761   0.02548   0.03847  -0.00491
 225        5PX        -0.00728   0.11490   0.33094   0.03401  -0.02773
 226        5PY        -0.15963  -0.15139  -0.08622   0.03485  -0.04451
 227        5PZ         0.17650  -0.05308   0.04284   0.02665   0.02785
 228        6PX         0.01017   0.07850   0.19211   0.00317  -0.00425
 229        6PY        -0.09251  -0.10494  -0.07452   0.00773  -0.01446
 230        6PZ         0.09890  -0.03008   0.02551   0.02214   0.01661
 231        7PX         0.00640   0.01741   0.02990  -0.00418  -0.00205
 232        7PY        -0.00347  -0.01132  -0.02349  -0.00457   0.00445
 233        7PZ        -0.00500   0.00106  -0.00129   0.01155  -0.00025
 234        8D 0       -0.00375  -0.00159   0.00277   0.00154  -0.00194
 235        8D+1       -0.00703   0.00199  -0.00041  -0.00008  -0.00054
 236        8D-1       -0.01327   0.00382  -0.00224   0.00118  -0.00152
 237        8D+2       -0.00444  -0.00597  -0.00689   0.00021  -0.00044
 238        8D-2        0.00554   0.00151  -0.01035  -0.00138   0.00331
 239        9D 0        0.00044   0.00168   0.00235   0.00036  -0.00045
 240        9D+1       -0.00610   0.00169  -0.00115  -0.00039  -0.00090
 241        9D-1       -0.01493   0.00430  -0.00116  -0.00018  -0.00122
 242        9D+2       -0.00548  -0.01008  -0.01162  -0.00029   0.00266
 243        9D-2        0.00119   0.00106  -0.00153   0.00220  -0.00115
                          11        12        13        14        15
     Eigenvalues --     2.00000   2.00000   2.00000   2.00000   2.00000
   1 1   C  1S         -0.11907   0.14174   0.42076  -0.20367  -0.00760
   2        2S         -0.06753   0.07553  -0.10194  -0.02827  -0.01259
   3        3S         -0.15715   0.19166  -0.25491  -0.00268   0.01245
   4        4S          0.40647  -0.10492  -0.14841   0.13135   0.01594
   5        5PX        -0.18716   0.07866  -0.05422  -0.10801  -0.03497
   6        5PY        -0.05204  -0.06386   0.15111   0.15086   0.01863
   7        5PZ         0.06543   0.04839  -0.02463  -0.03056   0.23520
   8        6PX         0.09153   0.12275  -0.05973   0.09471  -0.03758
   9        6PY         0.04623  -0.10033   0.08717  -0.09043  -0.02307
  10        6PZ         0.04243   0.02291  -0.00989  -0.02180   0.13669
  11        7PX         0.07429  -0.10205  -0.00507  -0.04034  -0.10381
  12        7PY        -0.05508   0.04110   0.04072   0.01507   0.05802
  13        7PZ         0.00345   0.00109   0.00123  -0.00190   0.00468
  14        8D 0       -0.00127  -0.00151   0.00515   0.00328   0.00109
  15        8D+1       -0.00842   0.00098  -0.00214   0.00127  -0.00604
  16        8D-1        0.00309  -0.00293   0.00285   0.00001  -0.00825
  17        8D+2        0.01350  -0.00174   0.00617   0.01244   0.00235
  18        8D-2        0.00249  -0.00535   0.00817  -0.00202   0.00315
  19        9D 0       -0.00431   0.00968   0.00852  -0.00416  -0.00375
  20        9D+1       -0.00497   0.00125  -0.00124   0.00295  -0.00794
  21        9D-1       -0.00174   0.00139  -0.00051   0.00131  -0.00402
  22        9D+2       -0.06808  -0.00497  -0.02269  -0.08859  -0.01530
  23        9D-2        0.04643  -0.03771   0.01618  -0.04308   0.01222
  24 2   C  1S         -0.28901  -0.24502   0.37599   0.03608  -0.04195
  25        2S          0.09018  -0.02666  -0.03409   0.07217   0.03150
  26        3S          0.26506   0.03992   0.02212   0.15986   0.04292
  27        4S         -0.22574   0.01576   0.07406  -0.15927   0.02842
  28        5PX         0.10318  -0.02685   0.02861   0.05722   0.00439
  29        5PY        -0.04033   0.00741  -0.04026   0.12327  -0.04020
  30        5PZ         0.12613   0.00259   0.01891  -0.01946   0.14822
  31        6PX         0.16470   0.03134   0.00574   0.14768  -0.00770
  32        6PY        -0.00424  -0.03702   0.02456  -0.01401   0.00838
  33        6PZ         0.07311   0.00272   0.01193  -0.01110   0.07529
  34        7PX         0.04613  -0.06398  -0.00600  -0.02812  -0.08962
  35        7PY         0.05651  -0.04053  -0.01637  -0.01167  -0.05327
  36        7PZ         0.00247   0.00001  -0.00046   0.00028   0.00498
  37        8D 0       -0.00252  -0.00044   0.00319   0.00002  -0.00033
  38        8D+1        0.00379   0.00314  -0.00152  -0.00217   0.01413
  39        8D-1       -0.00190   0.00162  -0.00096  -0.00143   0.00132
  40        8D+2       -0.00061   0.00056  -0.00331   0.00653  -0.00005
  41        8D-2       -0.00459  -0.00346   0.00743  -0.00066   0.00116
  42        9D 0       -0.00240  -0.00581   0.00272   0.00341   0.00407
  43        9D+1       -0.00056   0.00132  -0.00075   0.00024  -0.00040
  44        9D-1       -0.00112  -0.00055  -0.00034   0.00009   0.00146
  45        9D+2        0.02797   0.00003   0.00988   0.02384  -0.00430
  46        9D-2        0.00919  -0.00908  -0.00453   0.01088  -0.00254
  47 3   C  1S         -0.10040  -0.12203   0.03154  -0.07489   0.04670
  48        2S          0.04572  -0.03413  -0.03435  -0.08067  -0.01005
  49        3S          0.10031  -0.05167  -0.00551  -0.12642  -0.03676
  50        4S         -0.00967   0.10440  -0.09509   0.14456   0.09765
  51        5PX         0.02903   0.00753   0.01430  -0.02375  -0.00390
  52        5PY         0.02070   0.01109   0.03279  -0.04254   0.07443
  53        5PZ         0.00891  -0.03529   0.01668   0.03326  -0.06935
  54        6PX        -0.00326  -0.02354   0.01648  -0.00264  -0.00389
[...]
 ! R10   R(5,10)                 1.0925         -DE/DX =    0.0                 !
 ! R11   R(6,11)                 1.4906         -DE/DX =    0.0                 !
 ! R12   R(11,12)                1.2204         -DE/DX =    0.0                 !
 ! R13   R(11,13)                1.2204         -DE/DX =    0.0                 !
 ! A1    A(2,1,6)              120.3319         -DE/DX =    0.0                 !
 ! A2    A(2,1,7)              118.2527         -DE/DX =    0.0                 !
 ! A3    A(6,1,7)              121.4155         -DE/DX =    0.0                 !
 ! A4    A(1,2,3)              103.6106         -DE/DX =    0.0                 !
 ! A5    A(1,2,8)              125.0832         -DE/DX =    0.0                 !
 ! A6    A(3,2,8)              131.3061         -DE/DX =    0.0                 !
 ! A7    A(2,3,4)              148.6288         -DE/DX =    0.0                 !
 ! A8    A(3,4,5)              103.6266         -DE/DX =    0.0                 !
 ! A9    A(3,4,9)              131.2833         -DE/DX =    0.0                 !
 ! A10   A(5,4,9)              125.0901         -DE/DX =    0.0                 !
 ! A11   A(4,5,6)              120.3211         -DE/DX =    0.0                 !
 ! A12   A(4,5,10)             118.2584         -DE/DX =    0.0                 !
 ! A13   A(6,5,10)             121.4206         -DE/DX =    0.0                 !
 ! A14   A(1,6,5)              123.4811         -DE/DX =    0.0                 !
 ! A15   A(1,6,11)             118.2618         -DE/DX =    0.0                 !
 ! A16   A(5,6,11)             118.2571         -DE/DX =    0.0                 !
 ! A17   A(6,11,12)            116.2832         -DE/DX =    0.0                 !
 ! A18   A(6,11,13)            116.284          -DE/DX =    0.0                 !
 ! A19   A(12,11,13)           127.4328         -DE/DX =    0.0                 !
 ! D1    D(6,1,2,3)             -0.0243         -DE/DX =    0.0                 !
 ! D2    D(6,1,2,8)            180.0754         -DE/DX =    0.0                 !
 ! D3    D(7,1,2,3)           -180.0573         -DE/DX =    0.0                 !
 ! D4    D(7,1,2,8)              0.0424         -DE/DX =    0.0                 !
 ! D5    D(2,1,6,5)              0.0171         -DE/DX =    0.0                 !
 ! D6    D(2,1,6,11)           180.0026         -DE/DX =    0.0                 !
 ! D7    D(7,1,6,5)            180.0511         -DE/DX =    0.0                 !
 ! D8    D(7,1,6,11)             0.0366         -DE/DX =    0.0                 !
 ! D9    D(1,2,3,4)              0.0226         -DE/DX =    0.0                 !
 ! D10   D(8,2,3,4)            179.914          -DE/DX =    0.0                 !
 ! D11   D(2,3,4,5)             -0.0048         -DE/DX =    0.0                 !
 ! D12   D(2,3,4,9)           -180.0798         -DE/DX =    0.0                 !
 ! D13   D(3,4,5,6)             -0.0106         -DE/DX =    0.0                 !
 ! D14   D(3,4,5,10)          -180.0322         -DE/DX =    0.0                 !
 ! D15   D(9,4,5,6)            180.0583         -DE/DX =    0.0                 !
 ! D16   D(9,4,5,10)             0.0366         -DE/DX =    0.0                 !
 ! D17   D(4,5,6,1)              0.0038         -DE/DX =    0.0                 !
 ! D18   D(4,5,6,11)          -179.9817         -DE/DX =    0.0                 !
 ! D19   D(10,5,6,1)           180.0262         -DE/DX =    0.0                 !
 ! D20   D(10,5,6,11)            0.0406         -DE/DX =    0.0                 !
 ! D21   D(1,6,11,12)         -179.9979         -DE/DX =    0.0                 !
 ! D22   D(1,6,11,13)           -0.0015         -DE/DX =    0.0                 !
 ! D23   D(5,6,11,12)           -0.0117         -DE/DX =    0.0                 !
 ! D24   D(5,6,11,13)         -180.0152         -DE/DX =    0.0                 !
 --------------------------------------------------------------------------------
 GradGradGradGradGradGradGradGradGradGradGradGradGradGradGradGradGradGrad

 Leave Link  103 at Sat Nov  5 22:52:49 2016, MaxMem=   524288000 cpu:               0.1 elap:               0.0
 (Enter /home/ubuntu/g16/l9999.exe)

 ----------------------------------------------------------------------

 Electric dipole moment (input orientation):
 (Debye = 10**-18 statcoulomb cm , SI units = C m)
                  (au)            (Debye)         (10**-30 SI)
   Tot        0.381338D+01      0.969264D+01      0.323312D+02
   x          0.378803D+01      0.962821D+01      0.321163D+02
   y          0.417909D+00      0.106222D+01      0.354318D+01
   z          0.134312D+00      0.341386D+00      0.113874D+01

 Dipole polarizability, Alpha (input orientation).
 (esu units = cm**3 , SI units = C**2 m**2 J**-1)
 Alpha(0;0):
               (au)            (10**-24 esu)      (10**-40 SI)
   iso        0.767855D+02      0.113784D+02      0.126602D+02
   aniso      0.529746D+02      0.785003D+01      0.873433D+01
   xx         0.965527D+02      0.143076D+02      0.159194D+02
   yx         0.601460D+00      0.891271D-01      0.991673D-01
   yy         0.856941D+02      0.126986D+02      0.141291D+02
   zx        -0.154390D+00     -0.228782D-01     -0.254555D-01
   zy         0.169954D+02      0.251846D+01      0.280216D+01
   zz         0.481096D+02      0.712911D+01      0.793220D+01

 ----------------------------------------------------------------------

 Dipole orientation:
     6          2.64707565         -2.36246271         -3.16212021
     6          2.69136903         -2.44932284         -0.46194419
     6          1.58176819         -0.29551508          0.21810490
     6          0.47196447          1.85799696         -0.46253703
     6          0.51621604          1.77123076         -3.16248746
     6          1.58157595         -0.29574936         -4.41222451
     1          3.46495422         -3.94587340         -4.20439659
     1          3.48398552         -3.98196450          0.65923847
     1         -0.32002123          3.39091326          0.65899470
     1         -0.30108895          3.35475628         -4.20482438
     7          1.58193390         -0.29568004         -7.22896836
     8          0.63446561          1.54222964         -8.25025733
     8          2.52978421         -2.13350018         -8.25015068

 Electric dipole moment (dipole orientation):
 (Debye = 10**-18 statcoulomb cm , SI units = C m)
                  (au)            (Debye)         (10**-30 SI)
   Tot        0.381338D+01      0.969264D+01      0.323312D+02
   x          0.000000D+00      0.000000D+00      0.000000D+00
   y          0.000000D+00      0.000000D+00      0.000000D+00
   z          0.381338D+01      0.969264D+01      0.323312D+02

 Dipole polarizability, Alpha (dipole orientation).
 (esu units = cm**3 , SI units = C**2 m**2 J**-1)
 Alpha(0;0):
               (au)            (10**-24 esu)      (10**-40 SI)
   iso        0.767855D+02      0.113784D+02      0.126602D+02
   aniso      0.529746D+02      0.785003D+01      0.873433D+01
   xx         0.521905D+02      0.773383D+01      0.860505D+01
   yx        -0.206165D+02     -0.305506D+01     -0.339921D+01
   yy         0.815524D+02      0.120848D+02      0.134462D+02
   zx        -0.730274D-03     -0.108215D-03     -0.120406D-03
   zy        -0.690807D-03     -0.102367D-03     -0.113899D-03
   zz         0.966136D+02      0.143167D+02      0.159294D+02

 ----------------------------------------------------------------------
 1\1\GINC-LC06-2-7\Freq\UB3LYP\Aug-CC-pVDZ\C6H4N1O2(1+)\UBUNTU\05-Nov-2
 016\0\\#P Geom=AllCheck Guess=TCheck SCRF=Check GenChk UB3LYP/Aug-CC-p
 VDZ Freq\\s-4-NO2Ph+_UB3LYP-aug-cc-pVDZ\\1,1\C,-1.4651465689,-1.566339
 9625,-1.3133914563\C,-0.039842191,-1.4576454994,-1.2813109493\C,0.1702
 856669,-0.2299381252,-0.8102687961\C,-0.3348353029,0.9187157682,-0.364
 4637132\C,-1.7481653589,0.7142939367,-0.4330154648\C,-2.2636830432,-0.
 498575125,-0.8964552873\H,-1.904651806,-2.5004809859,-1.6709171293\H,0
 .6544444408,-2.2383618628,-1.5881785565\H,0.1497827033,1.829601671,-0.
 0161433942\H,-2.4044492371,1.5275708172,-0.1146514571\N,-3.744326399,-
 0.6619092818,-0.9491465827\O,-4.4069271017,0.2928840342,-0.5767211101\
 O,-4.1553658023,-1.7351253847,-1.3598461031\\Version=ES64L-G16RevA.03\
 State=1-A\HF=-435.7920598\S2=0.\S2-1=0.\S2A=0.\RMSD=5.398e-09\RMSF=2.7
 05e-05\ZeroPoint=0.086644\Thermal=0.0939709\Dipole=3.7880306,0.4179093
 ,0.1343116\DipoleDeriv=0.106588,0.130017,0.0495235,-0.1620775,-0.10583
 98,-0.0365367,-0.0636877,-0.0386145,-0.022526,-0.2101506,-0.266479,-0.
 1010556,0.1509151,-0.2780061,-0.125356,0.0592798,-0.1221007,-0.0030333
 ,0.3433066,-0.0580399,-0.0234239,-0.0580481,0.7876718,0.2325889,-0.023
 2191,0.2322793,0.2744968,-0.2434133,0.2832011,0.1112386,-0.1339956,-0.
 2485198,-0.1118975,-0.0492881,-0.1145591,0.0006313,0.0870798,-0.084266
 6,-0.0333596,0.2076375,-0.0882168,-0.0324022,0.0797238,-0.0302858,-0.0
 202865,-0.0025772,0.0081864,0.0039396,0.0081591,-0.0545487,-0.0642334,
 0.0039431,-0.0645031,0.0874481,0.1757455,0.0037717,0.0013151,0.0813105
 ,0.2460516,0.0343679,0.0313568,0.0349865,0.1686516,0.2284129,-0.076986
 1,-0.0297818,-0.0993646,0.2950517,0.0314501,-0.038006,0.0312237,0.2276
 477,0.1905033,0.0514111,0.0199961,0.0737149,0.328738,0.0431961,0.02823
 47,0.0432332,0.2317915,0.2003321,-0.0165204,-0.0066733,-0.0940053,0.22
 41117,0.027145,-0.0365898,0.0266531,0.165889,1.421533,0.0021345,-0.007
 3087,0.0020844,1.2753222,0.3926563,-0.0072995,0.3926659,0.4076651,-0.6
 825432,0.266768,0.1062758,0.0261753,-0.660805,-0.1840028,0.0134883,-0.
 1856475,-0.2554306,-0.6148169,-0.2431978,-0.0906858,-0.0025058,-0.7210
 11,-0.2069757,0.0020636,-0.2053308,-0.2629447\Polar=96.5527161,0.60145
 96,85.6941126,-0.15439,16.9953994,48.1095859\Quadrupole=4.42638,2.4504
 771,-6.8768571,0.0682427,-0.0663215,4.2243202\PG=C01 [X(C6H4N1O2)]\NIm
 ag=0\\0.58040558,0.02635807,0.61769455,0.00704563,0.19178814,0.1938949
 7,-0.25748647,-0.06547024,-0.02388626,0.51527834,0.04762754,-0.0933325
 7,-0.01446750,-0.13136868,0.70600297,0.01972887,-0.01364412,-0.0622118
 5,-0.05391067,0.24146773,0.17543827,-0.01472151,-0.02917618,-0.0111556
 4,-0.08304090,-0.03681407,-0.01380177,0.26509969,-0.11782348,0.0237599
 2,0.00937334,0.03095694,-0.38623440,-0.13672696,-0.06877367,0.78762543
 ,-0.04520798,0.00875095,0.00531167,0.01235322,-0.13628227,-0.08408233,
 -0.02799071,0.28383184,0.16107538,-0.05102607,0.03820594,0.01516295,0.
 07288990,0.02670231,0.00979288,-0.10300759,0.04237663,0.01675333,0.467
 35128,0.03053118,0.00030533,-0.00480735,0.00216973,-0.04955199,-0.0206
 1445,0.11011834,-0.36841631,-0.13049788,0.06045433,0.74873654,0.012164
 30,-0.00488745,0.01033116,0.00035532,-0.02077915,-0.00400168,0.0428927
 5,-0.12998712,-0.08192305,0.02071520,0.25654938,0.18074043,0.06017818,
 -0.00205943,-0.00108088,-0.03200449,-0.03743616,-0.01406414,-0.0475407
 7,0.10124671,0.03929377,-0.25349606,-0.08237578,-0.03031766,0.59857511
 ,0.03172635,-0.06280388,-0.03019453,-0.04509408,-0.01660416,-0.0108092
 5,0.01261893,0.05291839,0.01969311,0.03068693,-0.09710503,-0.01577255,
 -0.04460972,0.60201617,0.01189151,-0.02995545,0.00331045,-0.01705780,-
 0.01084677,0.00823807,0.00524416,0.01905782,0.00891347,0.01328077,-0.0
 1498809,-0.06265913,-0.02071227,0.18611404,0.19184179,-0.17408857,0.10
 750982,0.04217235,-0.03652014,0.01148530,0.00473654,-0.02521282,0.0050
 8995,0.00211352,-0.01885215,-0.02488364,-0.00942905,-0.13844224,-0.079
 02136,-0.02991196,0.55817171,0.06266275,-0.24362806,-0.06909406,0.0454
 0326,0.03689761,0.01218820,0.00509368,-0.06318262,-0.02327039,-0.05879
 142,0.02116340,0.00686295,-0.03417351,-0.27540429,-0.08060468,-0.01803
 499,0.65580505,0.02486823,-0.06939711,-0.09240462,0.01777377,0.0124913
 4,0.00901408,0.00212418,-0.02333415,-0.01169803,-0.02248552,0.00667605
 ,0.00706710,-0.01261690,-0.08029354,-0.09631229,-0.00986064,0.19771341
 ,0.21907617,-0.08952636,-0.09793666,-0.03741283,-0.01743622,-0.0250010
 5,-0.00945445,-0.00549211,0.00163447,0.00068427,0.00096671,0.00220646,
 0.00083211,-0.00191494,0.00304608,0.00117890,0.01381741,0.01304822,0.0
 0498404,0.09726564,-0.09707126,-0.26243773,-0.08773202,0.00665986,0.00
 335975,-0.00262941,0.00081113,-0.00188514,-0.00164570,-0.00324526,-0.0
 0027444,0.00045692,0.00312057,0.00046356,0.00032961,-0.00941989,-0.011
 23246,-0.00672690,0.10296646,0.27323164,-0.03707633,-0.08773313,-0.067
 00369,0.00277873,-0.00241326,0.00910424,0.00038001,-0.00166834,0.00171
 961,-0.00127700,0.00040655,-0.00122786,0.00118905,0.00033895,-0.000323
 16,-0.00368937,-0.00684649,0.00375585,0.03923098,0.09615056,0.05908661
 ,-0.01285963,0.02113145,0.00832670,-0.16015676,0.14069144,0.05539501,0
 .00857526,-0.01006981,-0.00394514,-0.00175150,-0.00438780,-0.00170153,
 -0.00143961,-0.00014315,-0.00008691,-0.00360903,-0.00087902,-0.0002722
 9,0.00218583,-0.00034618,-0.00019913,0.16881793,-0.00631411,0.00912443
 ,0.00001021,0.14405551,-0.19946384,-0.06950364,0.01462782,-0.01812656,
 -0.00766835,-0.00344467,-0.00159003,0.00088357,-0.00072238,0.00018024,
 0.00216408,-0.00200570,0.00207522,-0.00147601,0.00021326,0.00000863,0.
 00240211,-0.14656004,0.20741759,-0.00229765,-0.00020111,0.00915515,0.0
 5672335,-0.06947845,-0.04958506,0.00559230,-0.00746660,-0.00147214,-0.
 00131642,0.00087532,-0.00345452,-0.00032263,0.00215192,-0.00457590,-0.
 00071633,-0.00147584,0.00536031,0.00002196,0.00240744,-0.00528574,-0.0
 5778049,0.07546642,0.04446803,-0.00152471,-0.00039378,-0.00017705,-0.0
 0359265,0.00388394,0.00148817,0.00811244,0.01646569,0.00631416,-0.0956
 2905,-0.11247572,-0.04292220,-0.00815392,-0.02499883,-0.00952739,-0.00
 402079,-0.00037750,-0.00007462,-0.00011656,0.00015763,0.00008392,0.000
 51712,0.00041615,0.00017835,0.10235393,0.00018947,0.00025630,0.0021871
 8,0.00293748,0.00004387,0.00146782,-0.00821779,-0.01772372,-0.00734625
 ,-0.11585240,-0.25677605,-0.08969273,0.00244453,0.00494310,-0.00166601
 ,0.00074931,0.00244275,-0.00135176,0.00003300,0.00004122,-0.00117534,-
 0.00023024,0.00007493,-0.00122093,0.11765921,0.26645837,0.00005379,0.0
 0218884,-0.00456635,0.00110939,0.00144752,-0.00326014,-0.00322429,-0.0
 0750944,-0.00140964,-0.04424663,-0.08970520,-0.05667518,0.00109366,-0.
 00148104,0.00863804,0.00036777,-0.00134328,0.00540189,0.00003682,-0.00
 117614,0.00262856,-0.00006647,-0.00122569,0.00277134,0.04482183,0.0962
 8890,0.05176764,-0.00031567,-0.00324446,-0.00124669,0.00066055,-0.0020
 2832,-0.00079338,-0.00474592,-0.00215068,-0.00077908,-0.02073432,0.019
 79795,0.00785617,-0.14675996,0.13027904,0.05105849,0.01323118,-0.00708
 870,-0.00278259,0.00108028,-0.00068255,-0.00026832,-0.00008288,0.00002
 451,0.00003024,0.00207880,0.00007655,-0.00002872,0.15740813,-0.0033195
 3,-0.00095795,-0.00017204,0.00342485,-0.00000236,0.00051603,-0.0013330
 9,-0.00254709,-0.00189159,-0.01187001,0.00629814,-0.00135993,0.1294176
 9,-0.21169122,-0.06968859,0.01538491,-0.01070849,-0.00669644,0.0011146
 7,-0.00070547,-0.00045902,-0.00010118,0.00001102,-0.00118408,0.0006375
 6,0.00010403,0.00243508,-0.13595625,0.21988992,-0.00125628,-0.00016708
 ,-0.00049654,0.00130878,0.00054071,-0.00119545,-0.00047181,-0.00189248
 ,0.00165286,-0.00436418,-0.00159601,0.00946652,0.05072724,-0.06970135,
 -0.06064304,0.00587609,-0.00650104,0.00382106,0.00042532,-0.00044555,0
 .00028680,-0.00001564,-0.00118567,0.00262112,0.00019010,0.00243855,-0.
 00527450,-0.05341119,0.07719062,0.05239284,-0.02782311,0.01227840,0.00
 493062,0.00473600,-0.00039925,-0.00015194,0.00090010,0.00026159,0.0001
 1207,0.00409340,0.00252942,0.00098381,-0.01720254,-0.01878898,-0.00711
 465,-0.10850190,-0.00134239,-0.00032472,0.00247056,-0.00090848,-0.0003
 9172,-0.00002062,0.00064912,0.00025074,0.00065475,-0.00078240,-0.00030
 351,0.00277755,0.00165206,0.00058912,0.60398919,0.02346388,0.01066714,
 0.00364064,-0.00002263,-0.00427446,-0.00361855,0.00025824,-0.00092558,
 -0.00152816,0.00215666,-0.00370672,-0.00341152,-0.02998205,0.00121703,
 0.00037014,-0.00133210,-0.09495910,-0.00502193,0.00287832,-0.00088504,
 0.00105210,0.00190223,0.00113555,0.00034754,-0.00203613,0.00053544,0.0
 0014311,-0.00213311,-0.00115998,0.00098021,-0.03983683,0.87818680,0.00
 922720,0.00372871,0.00217187,-0.00000097,-0.00360366,0.00369804,0.0001
 1256,-0.00154427,0.00246467,0.00083120,-0.00339922,0.00377202,-0.01140
 707,0.00030675,0.00100015,-0.00033090,-0.00505026,-0.08383072,0.001066
 42,0.00107568,-0.00324575,0.00073445,0.00035479,0.00033379,-0.00078652
 ,0.00013350,0.00025884,-0.00086831,0.00095027,-0.00327980,-0.01797624,
 0.25298889,0.31986278,-0.00722918,-0.00571270,-0.00213950,-0.00235117,
 0.00285193,0.00110829,0.00046690,0.00100949,0.00038717,-0.00045264,-0.
 00034096,-0.00013262,-0.00336307,0.00140837,0.00057109,-0.04783601,0.0
 4238180,0.01679446,0.00037709,-0.00032794,-0.00012454,-0.00050760,-0.0
 0063142,-0.00024261,0.00006396,0.00043516,0.00016741,-0.00436867,0.000
 57028,0.00024900,-0.27478276,0.19506857,0.07654005,0.29652784,-0.00190
 902,0.00392945,0.00080489,0.00460756,0.00149388,0.00105150,0.00033618,
 -0.00256818,-0.00104804,-0.00227874,0.00120084,0.00070298,-0.00395883,
 -0.00313127,-0.00149628,0.03038743,-0.00088045,-0.00814589,-0.00203338
 ,-0.00032008,-0.00040209,-0.00037912,-0.00040383,-0.00003660,0.0007559
 6,-0.00020574,-0.00010266,0.00102355,0.00124960,0.00056160,0.18150505,
 -0.35583936,-0.10977707,-0.23996837,0.45378722,-0.00067101,0.00082849,
 0.00220018,0.00178113,0.00105872,-0.00091178,0.00012639,-0.00104724,-0
 .00026894,-0.00087770,0.00068593,-0.00030239,-0.00149776,-0.00153365,0
 .00023858,0.01217372,-0.00822772,0.01646660,-0.00078053,-0.00041215,0.
 00060048,-0.00014442,-0.00003402,-0.00031549,0.00029100,-0.00010133,0.
 00000885,0.00042377,0.00056820,-0.00001943,0.07131227,-0.10987064,-0.1
 1697419,-0.09431156,0.16593380,0.09198756,-0.00398249,-0.00149023,-0.0
 0053939,-0.00097599,-0.00019492,-0.00007341,0.00060723,-0.00022384,-0.
 00008859,-0.00035192,-0.00334352,-0.00129659,-0.00843569,0.00289042,0.
 00118606,-0.02813665,-0.04790218,-0.01812740,-0.00367732,-0.00171409,-
 0.00063628,0.00033148,-0.00030806,-0.00012083,-0.00074331,0.00055810,0
 .00021896,-0.00022906,0.00037805,0.00015344,-0.19129064,-0.15038504,-0
 .05714187,0.04345530,0.03191173,0.01217470,0.19342908,0.00387817,-0.00
 257691,-0.00133690,0.00174043,0.00166570,0.00085512,0.00045049,-0.0026
 9414,-0.00109726,-0.00510031,-0.00028369,0.00043465,-0.00091165,0.0050
 0137,0.00121017,-0.03590904,-0.01838854,-0.01443708,-0.00216985,0.0006
 3557,0.00034740,-0.00062858,-0.00044336,-0.00018503,0.00030583,-0.0001
 9450,0.00004000,0.00208247,0.00021985,-0.00022253,-0.13681733,-0.42999
 173,-0.13616412,0.00325579,-0.09831210,-0.04784840,0.16982356,0.545362
 48,0.00152973,-0.00129969,0.00030761,0.00067201,0.00086505,-0.00024439
 ,0.00017187,-0.00108642,-0.00028353,-0.00196889,0.00041498,-0.00113343
 ,-0.00028441,0.00118113,0.00233297,-0.01350174,-0.01435081,0.01428259,
 -0.00081300,0.00034766,-0.00009594,-0.00024415,-0.00018779,-0.00002089
 ,0.00012025,0.00003839,-0.00028934,0.00080960,-0.00020852,0.00066755,-
 0.05191585,-0.13607182,-0.12623169,0.00113337,-0.04804615,0.00728996,0
 .06429121,0.19840397,0.10341853\\-0.00000241,-0.00002463,-0.00002400,0
 .00006114,-0.00008732,0.00002926,-0.00001625,0.00003597,0.00000154,-0.
 00004840,0.00000240,-0.00003691,-0.00000647,0.00004443,0.00002841,0.00
 001035,0.00000606,0.00001570,0.00000008,-0.00000717,-0.00001458,-0.000
 03118,0.00002415,-0.00001114,0.00000615,0.00000914,0.00001388,0.000021
 32,-0.00001237,-0.00000223,0.00002801,0.00002533,0.00001260,-0.0000084
 4,0.00001951,0.00000370,-0.00001388,-0.00003549,-0.00001621\\\@


 IF AT FIRST YOU DON'T SUCCEED, TRY, TRY AGAIN.
 THEN GIVE UP;
 THERE'S NO USE BEING A DAMN FOOL ABOUT IT.

                                 -- W. C. FIELDS
 Job cpu time:       0 days  1 hours 32 minutes 46.7 seconds.
 Elapsed time:       0 days  0 hours 13 minutes 15.3 seconds.
 File lengths (MBytes):  RWF=    159 Int=      0 D2E=      0 Chk=      8 Scr=      1
 Normal termination of Gaussian 16 at Sat Nov  5 22:52:49 2016.
