 Entering Gaussian System, Link 0=/home/ubuntu/g16/g16
 Input=s-C6H4_UB3LYP-aug-cc-pVDZ-Opt.gjf
 Output=s-C6H4_UB3LYP-aug-cc-pVDZ-Opt.log
 Initial command:
 /home/ubuntu/g16/l1.exe "/home/ubuntu/g16/Gau-4763.inp" -scrdir="/home/ubuntu/g16/"
 Entering Link 1 = /home/ubuntu/g16/l1.exe PID=      4765.
  
 Copyright (c) 1988,1990,1992,1993,1995,1998,2003,2009,2016,
            Gaussian, Inc.  All Rights Reserved.
  
 This is part of the Gaussian(R) 16 program.  It is based on
 the Gaussian(R) 09 system (copyright 2009, Gaussian, Inc.),
 the Gaussian(R) 03 system (copyright 2003, Gaussian, Inc.),
 the Gaussian(R) 98 system (copyright 1998, Gaussian, Inc.),
 the Gaussian(R) 94 system (copyright 1995, Gaussian, Inc.),
 the Gaussian 92(TM) system (copyright 1992, Gaussian, Inc.),
 the Gaussian 90(TM) system (copyright 1990, Gaussian, Inc.),
 the Gaussian 88(TM) system (copyright 1988, Gaussian, Inc.),
 the Gaussian 86(TM) system (copyright 1986, Carnegie Mellon
 University), and the Gaussian 82(TM) system (copyright 1983,
 Carnegie Mellon University). Gaussian is a federally registered
 trademark of Gaussian, Inc.
  
 This software contains proprietary and confidential information,
 including trade secrets, belonging to Gaussian, Inc.
  
 This software is provided under written license and may be
 used, copied, transmitted, or stored only in accord with that
 written license.
  
 The following legend is applicable only to US Government
 contracts under FAR:
  
                    RESTRICTED RIGHTS LEGEND
  
 Use, reproduction and disclosure by the US Government is
 subject to restrictions as set forth in subparagraphs (a)
 and (c) of the Commercial Computer Software - Restricted
 Rights clause in FAR 52.227-19.
  
 Gaussian, Inc.
 340 Quinnipiac St., Bldg. 40, Wallingford CT 06492
  
  
 ---------------------------------------------------------------
 Warning -- This program may not be used in any manner that
 competes with the business of Gaussian, Inc. or will provide
 assistance to any competitor of Gaussian, Inc.  The licensee
 of this program is prohibited from giving any competitor of
 Gaussian, Inc. access to this program.  By using this program,
 the user acknowledges that Gaussian, Inc. is engaged in the
 business of creating and licensing software in the field of
 computational chemistry and represents and warrants to the
 licensee that it is not a competitor of Gaussian, Inc. and that
 it will not use this program in any manner prohibited above.
 ---------------------------------------------------------------
  

 Cite this work as:
 Gaussian 16, Revision A.03,
 M. J. Frisch, G. W. Trucks, H. B. Schlegel, G. E. Scuseria, 
 M. A. Robb, J. R. Cheeseman, G. Scalmani, V. Barone, 
 G. A. Petersson, H. Nakatsuji, X. Li, M. Caricato, A. V. Marenich, 
 J. Bloino, B. G. Janesko, R. Gomperts, B. Mennucci, H. P. Hratchian, 
 J. V. Ortiz, A. F. Izmaylov, J. L. Sonnenberg, D. Williams-Young, 
 F. Ding, F. Lipparini, F. Egidi, J. Goings, B. Peng, A. Petrone, 
 T. Henderson, D. Ranasinghe, V. G. Zakrzewski, J. Gao, N. Rega, 
 G. Zheng, W. Liang, M. Hada, M. Ehara, K. Toyota, R. Fukuda, 
 J. Hasegawa, M. Ishida, T. Nakajima, Y. Honda, O. Kitao, H. Nakai, 
 T. Vreven, K. Throssell, J. A. Montgomery, Jr., J. E. Peralta, 
 F. Ogliaro, M. J. Bearpark, J. J. Heyd, E. N. Brothers, K. N. Kudin, 
 V. N. Staroverov, T. A. Keith, R. Kobayashi, J. Normand, 
 K. Raghavachari, A. P. Rendell, J. C. Burant, S. S. Iyengar, 
 J. Tomasi, M. Cossi, J. M. Millam, M. Klene, C. Adamo, R. Cammi, 
 J. W. Ochterski, R. L. Martin, K. Morokuma, O. Farkas, 
 J. B. Foresman, and D. J. Fox, Gaussian, Inc., Wallingford CT, 2016.
 
 ******************************************
 Gaussian 16:  ES64L-G16RevA.03 25-Dec-2016
                 5-Nov-2016 
 ******************************************
 %chk=s-C6H4_UB3LYP-aug-cc-pVDZ-Opt.chk
 %mem=500MW
 %nproc=7
 Will use up to    7 processors via shared memory.
 ----------------------------------------------------------------------
 #p opt=(maxcycles=777) freq ub3lyp/aug-cc-pVDZ pop=(Bonding,AllOrbital
 s,mk,no,nboread)
 ----------------------------------------------------------------------
 1/6=777,18=20,19=15,26=3,38=1/1,3;
 2/9=110,12=2,17=6,18=5,40=1/2;
 3/5=16,7=10,11=2,25=1,30=1,71=1,74=-5,116=2/1,2,3;
 4//1;
 5/5=2,38=5/2;
 6/7=2,8=2,9=2,10=2,15=8,20=1,22=-1,27=20,28=1,31=1,40=2,96=-1/1,2,7;
 7//1,2,3,16;
 1/6=777,18=20,19=15,26=3/3(2);
 2/9=110/2;
 99//99;
 2/9=110/2;
 3/5=16,7=10,11=2,25=1,30=1,71=1,74=-5,116=2/1,2,3;
 4/5=5,16=3,69=1/1;
 5/5=2,38=5/2;
 7//1,2,3,16;
 1/6=777,18=20,19=15,26=3/3(-5);
 2/9=110/2;
 6/7=2,8=2,9=2,10=2,15=8,19=2,20=1,22=-1,27=20,28=1,31=1,40=2,96=-1/1,2,7;
 99/9=1/99;
 Leave Link    1 at Sat Nov  5 23:06:48 2016, MaxMem=   524288000 cpu:               0.3 elap:               0.0
 (Enter /home/ubuntu/g16/l101.exe)
 -------------------------
 s-C6H4_UB3LYP-aug-cc-pVDZ
 -------------------------
 Symbolic Z-matrix:
 Charge =  0 Multiplicity = 1
 C                    -1.17792  -0.38398  -0.05818 
 C                    -0.67018   0.76199  -0.04026 
 C                     0.68008   1.07936   0.00567 
 C                     1.46114  -0.10044   0.03158 
 C                     0.89026  -1.38795   0.01128 
 C                    -0.50825  -1.59919  -0.03611 
 H                     1.11962   2.07466   0.02135 
 H                     2.54862  -0.00389   0.069 
 H                     1.54862  -2.25877   0.03344 
 H                    -0.95308  -2.59211  -0.05166 
 
 ITRead=  0  0  0  0  0  0  0  0  0  0
 MicOpt= -1 -1 -1 -1 -1 -1 -1 -1 -1 -1
 NAtoms=     10 NQM=       10 NQMF=       0 NMMI=      0 NMMIF=      0
                NMic=       0 NMicF=      0.
                    Isotopes and Nuclear Properties:
 (Nuclear quadrupole moments (NQMom) in fm**2, nuclear magnetic moments (NMagM)
  in nuclear magnetons)

  Atom         1           2           3           4           5           6           7           8           9          10
 IAtWgt=          12          12          12          12          12          12           1           1           1           1
 AtmWgt=  12.0000000  12.0000000  12.0000000  12.0000000  12.0000000  12.0000000   1.0078250   1.0078250   1.0078250   1.0078250
 NucSpn=           0           0           0           0           0           0           1           1           1           1
 AtZEff=  -0.0000000  -0.0000000  -0.0000000  -0.0000000  -0.0000000  -0.0000000  -0.0000000  -0.0000000  -0.0000000  -0.0000000
 NQMom=    0.0000000   0.0000000   0.0000000   0.0000000   0.0000000   0.0000000   0.0000000   0.0000000   0.0000000   0.0000000
 NMagM=    0.0000000   0.0000000   0.0000000   0.0000000   0.0000000   0.0000000   2.7928460   2.7928460   2.7928460   2.7928460
 AtZNuc=   6.0000000   6.0000000   6.0000000   6.0000000   6.0000000   6.0000000   1.0000000   1.0000000   1.0000000   1.0000000
 Leave Link  101 at Sat Nov  5 23:06:48 2016, MaxMem=   524288000 cpu:               1.2 elap:               0.2
 (Enter /home/ubuntu/g16/l103.exe)

 GradGradGradGradGradGradGradGradGradGradGradGradGradGradGradGradGradGrad
 Berny optimization.
 Initialization pass.
                           ----------------------------
                           !    Initial Parameters    !
                           ! (Angstroms and Degrees)  !
 --------------------------                            --------------------------
 ! Name  Definition              Value          Derivative Info.                !
 --------------------------------------------------------------------------------
 ! R1    R(1,2)                  1.2535         estimate D2E/DX2                !
 ! R2    R(1,6)                  1.3877         estimate D2E/DX2                !
 ! R3    R(2,3)                  1.3878         estimate D2E/DX2                !
 ! R4    R(3,4)                  1.4152         estimate D2E/DX2                !
 ! R5    R(3,7)                  1.0881         estimate D2E/DX2                !
 ! R6    R(4,5)                  1.4085         estimate D2E/DX2                !
 ! R7    R(4,8)                  1.0924         estimate D2E/DX2                !
 ! R8    R(5,6)                  1.4152         estimate D2E/DX2                !
 ! R9    R(5,9)                  1.0919         estimate D2E/DX2                !
 ! R10   R(6,10)                 1.0881         estimate D2E/DX2                !
 ! A1    A(2,1,6)              127.2192         estimate D2E/DX2                !
 ! A2    A(1,2,3)              127.1292         estimate D2E/DX2                !
 ! A3    A(2,3,4)              110.3006         estimate D2E/DX2                !
 ! A4    A(2,3,7)              127.06           estimate D2E/DX2                !
 ! A5    A(4,3,7)              122.6394         estimate D2E/DX2                !
 ! A6    A(3,4,5)              122.554          estimate D2E/DX2                !
 ! A7    A(3,4,8)              118.4495         estimate D2E/DX2                !
 ! A8    A(5,4,8)              118.9964         estimate D2E/DX2                !
 ! A9    A(4,5,6)              122.5103         estimate D2E/DX2                !
 ! A10   A(4,5,9)              118.9685         estimate D2E/DX2                !
 ! A11   A(6,5,9)              118.5212         estimate D2E/DX2                !
 ! A12   A(1,6,5)              110.2866         estimate D2E/DX2                !
 ! A13   A(1,6,10)             126.9834         estimate D2E/DX2                !
 ! A14   A(5,6,10)             122.7301         estimate D2E/DX2                !
 ! D1    D(6,1,2,3)              0.0082         estimate D2E/DX2                !
 ! D2    D(2,1,6,5)             -0.012          estimate D2E/DX2                !
 ! D3    D(2,1,6,10)           179.9906         estimate D2E/DX2                !
 ! D4    D(1,2,3,4)             -0.0088         estimate D2E/DX2                !
 ! D5    D(1,2,3,7)           -179.9891         estimate D2E/DX2                !
 ! D6    D(2,3,4,5)              0.0156         estimate D2E/DX2                !
 ! D7    D(2,3,4,8)           -179.9699         estimate D2E/DX2                !
 ! D8    D(7,3,4,5)            179.997          estimate D2E/DX2                !
 ! D9    D(7,3,4,8)              0.0115         estimate D2E/DX2                !
 ! D10   D(3,4,5,6)             -0.0228         estimate D2E/DX2                !
 ! D11   D(3,4,5,9)           -179.9855         estimate D2E/DX2                !
 ! D12   D(8,4,5,6)            179.9626         estimate D2E/DX2                !
 ! D13   D(8,4,5,9)             -0.0001         estimate D2E/DX2                !
 ! D14   D(4,5,6,1)              0.0187         estimate D2E/DX2                !
 ! D15   D(4,5,6,10)          -179.9838         estimate D2E/DX2                !
 ! D16   D(9,5,6,1)            179.9815         estimate D2E/DX2                !
 ! D17   D(9,5,6,10)            -0.0209         estimate D2E/DX2                !
 --------------------------------------------------------------------------------
 Trust Radius=3.00D-01 FncErr=1.00D-07 GrdErr=1.00D-06 EigMax=2.50D+02 EigMin=1.00D-04
 Number of steps in this run=    100 maximum allowed number of steps=    100.
 GradGradGradGradGradGradGradGradGradGradGradGradGradGradGradGradGradGrad

 Leave Link  103 at Sat Nov  5 23:06:48 2016, MaxMem=   524288000 cpu:               0.1 elap:               0.0
 (Enter /home/ubuntu/g16/l202.exe)
                          Input orientation:                          
 ---------------------------------------------------------------------
 Center     Atomic      Atomic             Coordinates (Angstroms)
 Number     Number       Type             X           Y           Z
 ---------------------------------------------------------------------
      1          6           0       -1.177920   -0.383980   -0.058180
      2          6           0       -0.670180    0.761990   -0.040260
      3          6           0        0.680080    1.079360    0.005670
      4          6           0        1.461140   -0.100440    0.031580
      5          6           0        0.890260   -1.387950    0.011280
      6          6           0       -0.508250   -1.599190   -0.036110
      7          1           0        1.119620    2.074660    0.021350
      8          1           0        2.548620   -0.003890    0.069000
      9          1           0        1.548620   -2.258770    0.033440
     10          1           0       -0.953080   -2.592110   -0.051660
 ---------------------------------------------------------------------
                    Distance matrix (angstroms):
                    1          2          3          4          5
     1  C    0.000000
     2  C    1.253542   0.000000
     3  C    2.365926   1.387817   0.000000
     4  C    2.655765   2.300320   1.415152   0.000000
     5  C    2.300032   2.657042   2.476252   1.408545   0.000000
     6  C    1.387689   2.366730   2.930615   2.475748   1.415167
     7  H    3.365996   2.220424   1.088147   2.201772   3.470213
     8  H    3.748032   3.310466   2.160760   1.092399   2.160813
     9  H    3.310174   3.748799   3.449383   2.160103   1.091905
    10  H    2.219557   3.366029   4.018730   3.470419   2.202695
                    6          7          8          9         10
     6  C    0.000000
     7  H    4.018761   0.000000
     8  H    3.449708   2.522832   0.000000
     9  H    2.161156   4.354630   2.466931   0.000000
    10  H    1.088120   5.106874   4.356070   2.525245   0.000000
 Stoichiometry    C6H4
 Framework group  C1[X(C6H4)]
 Deg. of freedom    24
 Full point group                 C1      NOp   1
 Largest Abelian subgroup         C1      NOp   1
 Largest concise Abelian subgroup C1      NOp   1
                         Standard orientation:                         
 ---------------------------------------------------------------------
 Center     Atomic      Atomic             Coordinates (Angstroms)
 Number     Number       Type             X           Y           Z
 ---------------------------------------------------------------------
      1          6           0        0.626097   -1.239157    0.000006
      2          6           0       -0.627446   -1.239335    0.000024
      3          6           0       -1.465310   -0.132981   -0.000069
      4          6           0       -0.703658    1.059722    0.000009
      5          6           0        0.704887    1.059526   -0.000164
      6          6           0        1.465305   -0.133983    0.000046
      7          1           0       -2.553456   -0.134451    0.000111
      8          1           0       -1.233071    2.015262    0.000455
      9          1           0        1.233860    2.014745    0.000151
     10          1           0        2.553417   -0.138306    0.000173
 ---------------------------------------------------------------------
 Rotational constants (GHZ):           6.9928178           5.6738235           3.1323232
 Leave Link  202 at Sat Nov  5 23:06:48 2016, MaxMem=   524288000 cpu:               0.0 elap:               0.0
 (Enter /home/ubuntu/g16/l301.exe)
 Standard basis: Aug-CC-pVDZ (5D, 7F)
 Ernie: Thresh=  0.10000D-02 Tol=  0.10000D-05 Strict=F.
 Ernie:  12 primitive shells out of 178 were deleted.
 There are   186 symmetry adapted cartesian basis functions of A   symmetry.
 There are   174 symmetry adapted basis functions of A   symmetry.
   174 basis functions,   302 primitive gaussians,   186 cartesian basis functions
    20 alpha electrons       20 beta electrons
       nuclear repulsion energy       186.9994311736 Hartrees.
 IExCor=  402 DFT=T Ex+Corr=B3LYP ExCW=0 ScaHFX=  0.200000
 ScaDFX=  0.800000  0.720000  1.000000  0.810000 ScalE2=  1.000000  1.000000
 IRadAn=      5 IRanWt=     -1 IRanGd=            0 ICorTp=0 IEmpDi=  4
 NAtoms=   10 NActive=   10 NUniq=   10 SFac= 1.00D+00 NAtFMM=   60 NAOKFM=F Big=F
 Integral buffers will be    131072 words long.
 Raffenetti 2 integral format.
 Two-electron integral symmetry is turned on.
 Leave Link  301 at Sat Nov  5 23:06:48 2016, MaxMem=   524288000 cpu:               0.2 elap:               0.0
 (Enter /home/ubuntu/g16/l302.exe)
 NPDir=0 NMtPBC=     1 NCelOv=     1 NCel=       1 NClECP=     1 NCelD=      1
         NCelK=      1 NCelE2=     1 NClLst=     1 CellRange=     0.0.
 One-electron integrals computed using PRISM.
 One-electron integral symmetry used in STVInt
 NBasis=   174 RedAO= T EigKep=  4.28D-06  NBF=   174
 NBsUse=   174 1.00D-06 EigRej= -1.00D+00 NBFU=   174
 Precomputing XC quadrature grid using
 IXCGrd= 4 IRadAn=           5 IRanWt=          -1 IRanGd=           0 AccXCQ= 0.00D+00.
 Generated NRdTot=       0 NPtTot=           0 NUsed=           0 NTot=          32
 NSgBfM=   186   186   186   186   186 MxSgAt=    10 MxSgA2=    10.
 Leave Link  302 at Sat Nov  5 23:06:48 2016, MaxMem=   524288000 cpu:               1.6 elap:               0.2
 (Enter /home/ubuntu/g16/l303.exe)
 DipDrv:  MaxL=1.
 Leave Link  303 at Sat Nov  5 23:06:48 2016, MaxMem=   524288000 cpu:               0.2 elap:               0.0
 (Enter /home/ubuntu/g16/l401.exe)
 ExpMin= 2.97D-02 ExpMax= 6.67D+03 ExpMxC= 2.28D+02 IAcc=3 IRadAn=         5 AccDes= 0.00D+00
 Harris functional with IExCor=  402 and IRadAn=       5 diagonalized for initial guess.
 HarFok:  IExCor=  402 AccDes= 0.00D+00 IRadAn=         5 IDoV= 1 UseB2=F ITyADJ=14
 ICtDFT=  3500011 ScaDFX=  1.000000  1.000000  1.000000  1.000000
 FoFCou: FMM=F IPFlag=           0 FMFlag=      100000 FMFlg1=           0
         NFxFlg=           0 DoJE=T BraDBF=F KetDBF=T FulRan=T
         wScrn=  0.000000 ICntrl=       500 IOpCl=  0 I1Cent=   200000004 NGrid=           0
         NMat0=    1 NMatS0=      1 NMatT0=    0 NMatD0=    1 NMtDS0=    0 NMtDT0=    0
 Petite list used in FoFCou.
 Harris En= -230.949128991560    
 JPrj=0 DoOrth=F DoCkMO=F.
 Initial guess <Sx>= 0.0000 <Sy>= 0.0000 <Sz>= 0.0000 <S**2>= 0.0000 S= 0.0000
 Leave Link  401 at Sat Nov  5 23:06:49 2016, MaxMem=   524288000 cpu:               8.3 elap:               1.2
 (Enter /home/ubuntu/g16/l502.exe)
 Keep R1 and R2 ints in memory in canonical form, NReq=238905191.
 FoFCou: FMM=F IPFlag=           0 FMFlag=           0 FMFlg1=           0
         NFxFlg=           0 DoJE=F BraDBF=F KetDBF=F FulRan=T
         wScrn=  0.000000 ICntrl=       600 IOpCl=  0 I1Cent=           0 NGrid=           0
         NMat0=    1 NMatS0=  15225 NMatT0=    0 NMatD0=    1 NMtDS0=    0 NMtDT0=    0
 Symmetry not used in FoFCou.
 Two-electron integral symmetry not used.
 UHF open shell SCF:
 Using DIIS extrapolation, IDIIS=  1040.
 NGot=   524288000 LenX=   292399830 LenY=   292364793
 Requested convergence on RMS density matrix=1.00D-08 within 128 cycles.
 Requested convergence on MAX density matrix=1.00D-06.
 Requested convergence on             energy=1.00D-06.
 No special actions if energy rises.

 Cycle   1  Pass 1  IDiag  1:
 E= -230.811030196505    
 DIIS: error= 2.47D-02 at cycle   1 NSaved=   1.
 NSaved= 1 IEnMin= 1 EnMin= -230.811030196505     IErMin= 1 ErrMin= 2.47D-02
 ErrMax= 2.47D-02  0.00D+00 EMaxC= 1.00D-01 BMatC= 4.14D-01 BMatP= 4.14D-01
 IDIUse=3 WtCom= 7.53D-01 WtEn= 2.47D-01
 Coeff-Com:  0.100D+01
 Coeff-En:   0.100D+01
 Coeff:      0.100D+01
 Gap=     0.162 Goal=   None    Shift=    0.000
 Gap=     0.162 Goal=   None    Shift=    0.000
 GapD=    0.162 DampG=1.000 DampE=0.500 DampFc=0.5000 IDamp=-1.
 Damping current iteration by 5.00D-01
 RMSDP=3.64D-02 MaxDP=6.86D-01              OVMax= 1.71D-01

 Cycle   2  Pass 1  IDiag  1:
 E= -230.865194979562     Delta-E=       -0.054164783057 Rises=F Damp=T
 DIIS: error= 5.96D-03 at cycle   2 NSaved=   2.
 NSaved= 2 IEnMin= 2 EnMin= -230.865194979562     IErMin= 2 ErrMin= 5.96D-03
 ErrMax= 5.96D-03  0.00D+00 EMaxC= 1.00D-01 BMatC= 2.20D-02 BMatP= 4.14D-01
 IDIUse=3 WtCom= 9.40D-01 WtEn= 5.96D-02
 Coeff-Com:  0.602D-01 0.940D+00
 Coeff-En:   0.118D+00 0.882D+00
 Coeff:      0.636D-01 0.936D+00
 Gap=     0.197 Goal=   None    Shift=    0.000
 Gap=     0.197 Goal=   None    Shift=    0.000
 RMSDP=1.28D-02 MaxDP=3.88D-01 DE=-5.42D-02 OVMax= 9.57D-02

 Cycle   3  Pass 1  IDiag  1:
 E= -230.934954749803     Delta-E=       -0.069759770242 Rises=F Damp=F
 DIIS: error= 3.07D-03 at cycle   3 NSaved=   3.
 NSaved= 3 IEnMin= 3 EnMin= -230.934954749803     IErMin= 3 ErrMin= 3.07D-03
 ErrMax= 3.07D-03  0.00D+00 EMaxC= 1.00D-01 BMatC= 8.89D-03 BMatP= 2.20D-02
 IDIUse=3 WtCom= 9.69D-01 WtEn= 3.07D-02
 Coeff-Com: -0.296D-01 0.363D+00 0.667D+00
 Coeff-En:   0.000D+00 0.000D+00 0.100D+01
 Coeff:     -0.286D-01 0.351D+00 0.677D+00
 Gap=     0.186 Goal=   None    Shift=    0.000
 Gap=     0.186 Goal=   None    Shift=    0.000
 RMSDP=9.99D-04 MaxDP=3.09D-02 DE=-6.98D-02 OVMax= 2.98D-02

 Cycle   4  Pass 1  IDiag  1:
 E= -230.936278921300     Delta-E=       -0.001324171497 Rises=F Damp=F
 DIIS: error= 3.25D-03 at cycle   4 NSaved=   4.
 NSaved= 4 IEnMin= 4 EnMin= -230.936278921300     IErMin= 3 ErrMin= 3.07D-03
 ErrMax= 3.25D-03  0.00D+00 EMaxC= 1.00D-01 BMatC= 3.42D-03 BMatP= 8.89D-03
 IDIUse=3 WtCom= 9.67D-01 WtEn= 3.25D-02
 Coeff-Com: -0.252D-01 0.155D+00 0.430D+00 0.440D+00
 Coeff-En:   0.000D+00 0.000D+00 0.308D+00 0.692D+00
 Coeff:     -0.244D-01 0.150D+00 0.426D+00 0.448D+00
 Gap=     0.186 Goal=   None    Shift=    0.000
 Gap=     0.186 Goal=   None    Shift=    0.000
 RMSDP=4.96D-04 MaxDP=1.10D-02 DE=-1.32D-03 OVMax= 1.76D-02

 Cycle   5  Pass 1  IDiag  1:
 E= -230.937308497305     Delta-E=       -0.001029576004 Rises=F Damp=F
 DIIS: error= 7.18D-04 at cycle   5 NSaved=   5.
 NSaved= 5 IEnMin= 5 EnMin= -230.937308497305     IErMin= 5 ErrMin= 7.18D-04
 ErrMax= 7.18D-04  0.00D+00 EMaxC= 1.00D-01 BMatC= 1.51D-04 BMatP= 3.42D-03
 IDIUse=3 WtCom= 9.93D-01 WtEn= 7.18D-03
 Coeff-Com: -0.786D-02 0.128D-01 0.724D-01 0.205D+00 0.717D+00
 Coeff-En:   0.000D+00 0.000D+00 0.000D+00 0.000D+00 0.100D+01
 Coeff:     -0.781D-02 0.127D-01 0.719D-01 0.204D+00 0.719D+00
 Gap=     0.185 Goal=   None    Shift=    0.000
 Gap=     0.185 Goal=   None    Shift=    0.000
 RMSDP=1.46D-04 MaxDP=4.17D-03 DE=-1.03D-03 OVMax= 2.79D-03

 Cycle   6  Pass 1  IDiag  1:
 E= -230.937356034669     Delta-E=       -0.000047537364 Rises=F Damp=F
 DIIS: error= 2.67D-05 at cycle   6 NSaved=   6.
 NSaved= 6 IEnMin= 6 EnMin= -230.937356034669     IErMin= 6 ErrMin= 2.67D-05
 ErrMax= 2.67D-05  0.00D+00 EMaxC= 1.00D-01 BMatC= 7.18D-07 BMatP= 1.51D-04
 IDIUse=1 WtCom= 1.00D+00 WtEn= 0.00D+00
 Coeff-Com: -0.141D-02 0.887D-03 0.117D-01 0.396D-01 0.168D+00 0.781D+00
 Coeff:     -0.141D-02 0.887D-03 0.117D-01 0.396D-01 0.168D+00 0.781D+00
 Gap=     0.185 Goal=   None    Shift=    0.000
 Gap=     0.185 Goal=   None    Shift=    0.000
 RMSDP=1.32D-05 MaxDP=4.96D-04 DE=-4.75D-05 OVMax= 5.64D-04

 Cycle   7  Pass 1  IDiag  1:
 E= -230.937355695871     Delta-E=        0.000000338798 Rises=F Damp=F
 DIIS: error= 5.83D-05 at cycle   7 NSaved=   7.
 NSaved= 7 IEnMin= 6 EnMin= -230.937356034669     IErMin= 6 ErrMin= 2.67D-05
 ErrMax= 5.83D-05  0.00D+00 EMaxC= 1.00D-01 BMatC= 1.97D-06 BMatP= 7.18D-07
 IDIUse=1 WtCom= 1.00D+00 WtEn= 0.00D+00
 Coeff-Com: -0.461D-03-0.376D-03 0.326D-02 0.144D-01 0.741D-01 0.622D+00
 Coeff-Com:  0.287D+00
 Coeff:     -0.461D-03-0.376D-03 0.326D-02 0.144D-01 0.741D-01 0.622D+00
 Coeff:      0.287D+00
 Gap=     0.185 Goal=   None    Shift=    0.000
 Gap=     0.185 Goal=   None    Shift=    0.000
 RMSDP=6.20D-06 MaxDP=2.30D-04 DE= 3.39D-07 OVMax= 4.03D-04

 Cycle   8  Pass 1  IDiag  1:
 E= -230.937356246325     Delta-E=       -0.000000550454 Rises=F Damp=F
 DIIS: error= 3.95D-06 at cycle   8 NSaved=   8.
 NSaved= 8 IEnMin= 8 EnMin= -230.937356246325     IErMin= 8 ErrMin= 3.95D-06
 ErrMax= 3.95D-06  0.00D+00 EMaxC= 1.00D-01 BMatC= 1.33D-08 BMatP= 7.18D-07
 IDIUse=1 WtCom= 1.00D+00 WtEn= 0.00D+00
 Coeff-Com: -0.389D-04-0.225D-03 0.205D-03 0.192D-02 0.129D-01 0.161D+00
 Coeff-Com:  0.109D+00 0.715D+00
 Coeff:     -0.389D-04-0.225D-03 0.205D-03 0.192D-02 0.129D-01 0.161D+00
 Coeff:      0.109D+00 0.715D+00
 Gap=     0.185 Goal=   None    Shift=    0.000
 Gap=     0.185 Goal=   None    Shift=    0.000
 RMSDP=1.30D-06 MaxDP=4.50D-05 DE=-5.50D-07 OVMax= 2.94D-05

 Cycle   9  Pass 1  IDiag  1:
 E= -230.937356248887     Delta-E=       -0.000000002563 Rises=F Damp=F
 DIIS: error= 3.52D-06 at cycle   9 NSaved=   9.
 NSaved= 9 IEnMin= 9 EnMin= -230.937356248887     IErMin= 9 ErrMin= 3.52D-06
 ErrMax= 3.52D-06  0.00D+00 EMaxC= 1.00D-01 BMatC= 5.84D-09 BMatP= 1.33D-08
 IDIUse=1 WtCom= 1.00D+00 WtEn= 0.00D+00
 Coeff-Com:  0.480D-04-0.976D-04-0.396D-03-0.909D-03-0.266D-02 0.170D-01
 Coeff-Com:  0.292D-01 0.447D+00 0.511D+00
 Coeff:      0.480D-04-0.976D-04-0.396D-03-0.909D-03-0.266D-02 0.170D-01
 Coeff:      0.292D-01 0.447D+00 0.511D+00
 Gap=     0.185 Goal=   None    Shift=    0.000
 Gap=     0.185 Goal=   None    Shift=    0.000
 RMSDP=6.58D-07 MaxDP=1.65D-05 DE=-2.56D-09 OVMax= 1.15D-05

 Cycle  10  Pass 1  IDiag  1:
 E= -230.937356250362     Delta-E=       -0.000000001475 Rises=F Damp=F
 DIIS: error= 3.86D-07 at cycle  10 NSaved=  10.
 NSaved=10 IEnMin=10 EnMin= -230.937356250362     IErMin=10 ErrMin= 3.86D-07
 ErrMax= 3.86D-07  0.00D+00 EMaxC= 1.00D-01 BMatC= 3.34D-11 BMatP= 5.84D-09
 IDIUse=1 WtCom= 1.00D+00 WtEn= 0.00D+00
 Coeff-Com:  0.878D-05-0.604D-05-0.811D-04-0.173D-03-0.988D-03-0.497D-02
 Coeff-Com:  0.587D-04 0.437D-01 0.648D-01 0.898D+00
 Coeff:      0.878D-05-0.604D-05-0.811D-04-0.173D-03-0.988D-03-0.497D-02
 Coeff:      0.587D-04 0.437D-01 0.648D-01 0.898D+00
 Gap=     0.185 Goal=   None    Shift=    0.000
 Gap=     0.185 Goal=   None    Shift=    0.000
 RMSDP=1.14D-07 MaxDP=3.91D-06 DE=-1.47D-09 OVMax= 2.45D-06

 Cycle  11  Pass 1  IDiag  1:
 E= -230.937356250375     Delta-E=       -0.000000000012 Rises=F Damp=F
 DIIS: error= 9.68D-08 at cycle  11 NSaved=  11.
 NSaved=11 IEnMin=11 EnMin= -230.937356250375     IErMin=11 ErrMin= 9.68D-08
 ErrMax= 9.68D-08  0.00D+00 EMaxC= 1.00D-01 BMatC= 4.66D-12 BMatP= 3.34D-11
 IDIUse=1 WtCom= 1.00D+00 WtEn= 0.00D+00
 Coeff-Com:  0.259D-05-0.183D-06-0.250D-04-0.510D-04-0.360D-03-0.256D-02
 Coeff-Com: -0.718D-03 0.742D-02 0.105D-01 0.360D+00 0.625D+00
 Coeff:      0.259D-05-0.183D-06-0.250D-04-0.510D-04-0.360D-03-0.256D-02
 Coeff:     -0.718D-03 0.742D-02 0.105D-01 0.360D+00 0.625D+00
 Gap=     0.185 Goal=   None    Shift=    0.000
 Gap=     0.185 Goal=   None    Shift=    0.000
 RMSDP=2.34D-08 MaxDP=7.07D-07 DE=-1.24D-11 OVMax= 8.74D-07

 Cycle  12  Pass 1  IDiag  1:
 E= -230.937356250374     Delta-E=        0.000000000001 Rises=F Damp=F
 DIIS: error= 6.54D-08 at cycle  12 NSaved=  12.
 NSaved=12 IEnMin=11 EnMin= -230.937356250375     IErMin=12 ErrMin= 6.54D-08
 ErrMax= 6.54D-08  0.00D+00 EMaxC= 1.00D-01 BMatC= 1.96D-12 BMatP= 4.66D-12
 IDIUse=1 WtCom= 1.00D+00 WtEn= 0.00D+00
 Coeff-Com: -0.217D-06 0.110D-05 0.162D-05 0.536D-05-0.159D-04-0.515D-03
 Coeff-Com: -0.428D-03-0.485D-02-0.879D-02 0.217D-01 0.407D+00 0.586D+00
 Coeff:     -0.217D-06 0.110D-05 0.162D-05 0.536D-05-0.159D-04-0.515D-03
 Coeff:     -0.428D-03-0.485D-02-0.879D-02 0.217D-01 0.407D+00 0.586D+00
 Gap=     0.185 Goal=   None    Shift=    0.000
 Gap=     0.185 Goal=   None    Shift=    0.000
 RMSDP=1.05D-08 MaxDP=2.82D-07 DE= 1.19D-12 OVMax= 3.98D-07

 Cycle  13  Pass 1  IDiag  1:
 E= -230.937356250369     Delta-E=        0.000000000005 Rises=F Damp=F
 DIIS: error= 1.16D-08 at cycle  13 NSaved=  13.
 NSaved=13 IEnMin=11 EnMin= -230.937356250375     IErMin=13 ErrMin= 1.16D-08
 ErrMax= 1.16D-08  0.00D+00 EMaxC= 1.00D-01 BMatC= 2.84D-14 BMatP= 1.96D-12
 IDIUse=1 WtCom= 1.00D+00 WtEn= 0.00D+00
 Coeff-Com: -0.194D-06 0.158D-06 0.206D-05 0.550D-05 0.213D-04 0.870D-04
 Coeff-Com: -0.253D-04-0.138D-02-0.262D-02-0.254D-01 0.489D-01 0.139D+00
 Coeff-Com:  0.841D+00
 Coeff:     -0.194D-06 0.158D-06 0.206D-05 0.550D-05 0.213D-04 0.870D-04
 Coeff:     -0.253D-04-0.138D-02-0.262D-02-0.254D-01 0.489D-01 0.139D+00
 Coeff:      0.841D+00
 Gap=     0.185 Goal=   None    Shift=    0.000
 Gap=     0.185 Goal=   None    Shift=    0.000
 RMSDP=2.42D-09 MaxDP=6.70D-08 DE= 4.83D-12 OVMax= 8.24D-08

 SCF Done:  E(UB3LYP) =  -230.937356250     A.U. after   13 cycles
            NFock= 13  Conv=0.24D-08     -V/T= 2.0067
 <Sx>= 0.0000 <Sy>= 0.0000 <Sz>= 0.0000 <S**2>=-0.0000 S=-0.0000
 <L.S>= 0.000000000000E+00
 KE= 2.294085076435D+02 PE=-9.087436333509D+02 EE= 2.613983382835D+02
 Annihilation of the first spin contaminant:
 S**2 before annihilation    -0.0000,   after    -0.0000
 Leave Link  502 at Sat Nov  5 23:07:20 2016, MaxMem=   524288000 cpu:             200.5 elap:              31.0
 (Enter /home/ubuntu/g16/l601.exe)
 Copying SCF densities to generalized density rwf, IOpCl= 1 IROHF=0.

 **********************************************************************

            Population analysis using the SCF density.

 **********************************************************************

 Orbital symmetries:
 Alpha Orbitals:
       Occupied  (A) (A) (A) (A) (A) (A) (A) (A) (A) (A) (A) (A)
                 (A) (A) (A) (A) (A) (A) (A) (A)
       Virtual   (A) (A) (A) (A) (A) (A) (A) (A) (A) (A) (A) (A)
                 (A) (A) (A) (A) (A) (A) (A) (A) (A) (A) (A) (A)
                 (A) (A) (A) (A) (A) (A) (A) (A) (A) (A) (A) (A)
                 (A) (A) (A) (A) (A) (A) (A) (A) (A) (A) (A) (A)
                 (A) (A) (A) (A) (A) (A) (A) (A) (A) (A) (A) (A)
                 (A) (A) (A) (A) (A) (A) (A) (A) (A) (A) (A) (A)
                 (A) (A) (A) (A) (A) (A) (A) (A) (A) (A) (A) (A)
                 (A) (A) (A) (A) (A) (A) (A) (A) (A) (A) (A) (A)
                 (A) (A) (A) (A) (A) (A) (A) (A) (A) (A) (A) (A)
                 (A) (A) (A) (A) (A) (A) (A) (A) (A) (A) (A) (A)
                 (A) (A) (A) (A) (A) (A) (A) (A) (A) (A) (A) (A)
                 (A) (A) (A) (A) (A) (A) (A) (A) (A) (A) (A) (A)
                 (A) (A) (A) (A) (A) (A) (A) (A) (A) (A)
 Beta  Orbitals:
       Occupied  (A) (A) (A) (A) (A) (A) (A) (A) (A) (A) (A) (A)
                 (A) (A) (A) (A) (A) (A) (A) (A)
       Virtual   (A) (A) (A) (A) (A) (A) (A) (A) (A) (A) (A) (A)
                 (A) (A) (A) (A) (A) (A) (A) (A) (A) (A) (A) (A)
                 (A) (A) (A) (A) (A) (A) (A) (A) (A) (A) (A) (A)
                 (A) (A) (A) (A) (A) (A) (A) (A) (A) (A) (A) (A)
                 (A) (A) (A) (A) (A) (A) (A) (A) (A) (A) (A) (A)
                 (A) (A) (A) (A) (A) (A) (A) (A) (A) (A) (A) (A)
                 (A) (A) (A) (A) (A) (A) (A) (A) (A) (A) (A) (A)
                 (A) (A) (A) (A) (A) (A) (A) (A) (A) (A) (A) (A)
                 (A) (A) (A) (A) (A) (A) (A) (A) (A) (A) (A) (A)
                 (A) (A) (A) (A) (A) (A) (A) (A) (A) (A) (A) (A)
                 (A) (A) (A) (A) (A) (A) (A) (A) (A) (A) (A) (A)
                 (A) (A) (A) (A) (A) (A) (A) (A) (A) (A) (A) (A)
                 (A) (A) (A) (A) (A) (A) (A) (A) (A) (A)
 The electronic state is 1-A.
     Natural Orbital Coefficients:
                           1         2         3         4         5
     Eigenvalues --     2.00000   2.00000   2.00000   2.00000   2.00000
   1 1   C  1S          0.06509  -0.10525  -0.20202  -0.05879   0.05370
   2        2S         -0.07290   0.17548   0.06976   0.17083   0.03922
   3        3S         -0.17500   0.38090   0.06770   0.26782   0.07587
   4        4S          0.19030   0.20661  -0.04987  -0.00397   0.13082
   5        5PX        -0.13407   0.10066   0.04407   0.08690   0.13693
   6        5PY        -0.01886   0.07576  -0.15228  -0.22183  -0.07737
   7        5PZ         0.04032  -0.04223   0.03473  -0.01859   0.24718
   8        6PX        -0.13924  -0.00639   0.04947   0.11964   0.00548
   9        6PY        -0.10184  -0.01985  -0.07033  -0.06752  -0.07392
  10        6PZ         0.02139  -0.01770   0.01132  -0.00147   0.11760
  11        7PX         0.17759   0.11012  -0.09278  -0.04097   0.05981
  12        7PY         0.21002   0.10275  -0.08142  -0.06992   0.03798
  13        7PZ         0.00260  -0.00037  -0.00060   0.00353   0.00668
  14        8D 0       -0.00197  -0.00419  -0.00400   0.00097   0.00128
  15        8D+1       -0.00137   0.00216  -0.00493  -0.00019  -0.00117
  16        8D-1        0.00071  -0.00168   0.00017  -0.00347   0.01354
  17        8D+2        0.01310   0.00041  -0.00160   0.00819  -0.00212
  18        8D-2        0.00105   0.01280   0.01134   0.01419   0.01059
  19        9D 0       -0.00212  -0.00595  -0.00553  -0.00024  -0.00364
  20        9D+1       -0.00008   0.00019  -0.00053  -0.00003   0.00034
  21        9D-1       -0.00007  -0.00042  -0.00005  -0.00143   0.00359
  22        9D+2        0.02011   0.02246   0.00387  -0.00139   0.01310
  23        9D-2        0.02916   0.03710  -0.00261   0.01820   0.00133
  24 2   C  1S         -0.03167  -0.12503  -0.21034  -0.08010   0.03241
  25        2S         -0.04829  -0.06246   0.11151   0.03849  -0.05549
  26        3S         -0.12068  -0.07367   0.16981   0.01958  -0.11047
  27        4S         -0.32054  -0.18902   0.16771   0.11756  -0.02634
  28        5PX         0.12800   0.09776  -0.08207   0.01379  -0.06237
  29        5PY        -0.00375  -0.02436  -0.16367  -0.24770  -0.11265
  30        5PZ         0.03339  -0.05285   0.08096  -0.02724   0.16794
  31        6PX        -0.01877  -0.10235  -0.06064  -0.00724  -0.01208
  32        6PY         0.08394   0.11315  -0.09694  -0.14051  -0.05192
  33        6PZ         0.01700  -0.02441   0.04065  -0.00695   0.06730
  34        7PX         0.24119   0.07185  -0.09951  -0.07167   0.02698
  35        7PY        -0.19499  -0.11479   0.07506   0.05365  -0.04387
  36        7PZ         0.00209  -0.00118   0.00290   0.00286   0.00070
  37        8D 0        0.00272   0.00337  -0.00151  -0.00233   0.00197
  38        8D+1        0.00230  -0.00075  -0.00122   0.00134   0.01174
  39        8D-1       -0.00000  -0.00277   0.00491  -0.00435   0.00543
  40        8D+2        0.00253   0.00306   0.00610   0.00944  -0.00213
  41        8D-2        0.00744   0.01470  -0.01072  -0.01269  -0.00365
  42        9D 0        0.00996   0.00726  -0.00696  -0.00472  -0.00208
  43        9D+1        0.00020   0.00002  -0.00031   0.00018   0.00109
  44        9D-1       -0.00027  -0.00073   0.00130  -0.00167   0.00126
  45        9D+2       -0.01859  -0.03663   0.01188   0.00559  -0.00396
  46        9D-2        0.01467   0.02056  -0.02153  -0.01032   0.01821
  47 3   C  1S         -0.06048   0.21513   0.22036  -0.02250  -0.04631
  48        2S         -0.09256  -0.23554  -0.04145   0.03640  -0.00493
  49        3S         -0.11391  -0.30729  -0.22442   0.02681   0.04182
  50        4S          0.53891   0.60014  -0.26725  -0.21978   0.14932
  51        5PX        -0.06846   0.11364  -0.02968  -0.14149  -0.01454
  52        5PY         0.01288   0.04986  -0.11441   0.09134   0.08389
  53        5PZ        -0.00121  -0.05668   0.10486  -0.08775   0.09459
  54        6PX        -0.02799  -0.17448  -0.06392   0.11169   0.00340
  55        6PY         0.00530  -0.05838  -0.04192   0.00956  -0.04010
  56        6PZ        -0.00163  -0.02852   0.05599  -0.04366   0.03578
  57        7PX         0.09466   0.06957  -0.08466  -0.00223   0.04561
  58        7PY        -0.20631  -0.00494   0.09158   0.05254  -0.01164
  59        7PZ        -0.00054  -0.00215   0.00592  -0.00285  -0.00332
  60        8D 0       -0.00085   0.00544   0.00254  -0.00138   0.00081
  61        8D+1        0.00039  -0.00330   0.00497  -0.00512   0.00982
  62        8D-1       -0.00242   0.00009  -0.00027  -0.00472  -0.00121
  63        8D+2        0.01205  -0.00902   0.00029  -0.00224  -0.01145
  64        8D-2        0.00477  -0.00142  -0.00054   0.01235   0.00866
  65        9D 0       -0.01470  -0.00751   0.00250  -0.00164   0.00185
  66        9D+1        0.00027  -0.00024  -0.00030  -0.00031   0.00284
  67        9D-1       -0.00069  -0.00034   0.00044  -0.00203   0.00085
  68        9D+2        0.01680   0.06712   0.00174  -0.01198  -0.00383
  69        9D-2       -0.00148  -0.01115  -0.00940  -0.02136  -0.02117
  70 4   C  1S          0.01010  -0.01733   0.00004  -0.04252  -0.06203
  71        2S          0.08714  -0.00749  -0.10582   0.12381   0.09002
  72        3S          0.18599  -0.05470  -0.20739   0.27608   0.18350
  73        4S         -0.48200  -0.48579   0.56136  -0.03353  -0.35221
  74        5PX         0.20410  -0.08950   0.21215   0.05106  -0.09983
  75        5PY         0.03194   0.12182  -0.08032  -0.00443   0.03435
  76        5PZ        -0.02483  -0.04904   0.07247  -0.13721   0.13174
  77        6PX         0.11718  -0.16990  -0.26777   0.13374   0.08112
  78        6PY        -0.00492  -0.11763  -0.02215   0.03013  -0.04700
  79        6PZ        -0.01582  -0.02448   0.03813  -0.07377   0.05709
  80        7PX        -0.22488  -0.01427   0.19267   0.00337  -0.07690
  81        7PY         0.01821   0.08482   0.03219  -0.02766  -0.00384
  82        7PZ        -0.00277  -0.00160   0.00340  -0.00756  -0.00047
  83        8D 0        0.00097   0.00340   0.00336   0.00055   0.00055
  84        8D+1       -0.00071  -0.00049  -0.00167  -0.00416   0.00938
  85        8D-1       -0.00011   0.00262  -0.00467   0.00386  -0.00506
  86        8D+2        0.00920  -0.00600   0.01485   0.01151  -0.00191
  87        8D-2       -0.00703  -0.00784  -0.00163   0.01064   0.00020
  88        9D 0        0.00794   0.00688  -0.00450   0.01063   0.00589
  89        9D+1        0.00005  -0.00024  -0.00032  -0.00099   0.00345
  90        9D-1       -0.00040   0.00078  -0.00149   0.00034  -0.00136
  91        9D+2       -0.00316  -0.01088  -0.13908   0.05328   0.05753
  92        9D-2        0.00278   0.05753  -0.01390   0.01702   0.03142
  93 5   C  1S          0.04533   0.13133   0.02211  -0.05828   0.07445
  94        2S         -0.02196  -0.02159   0.20555  -0.04318  -0.05714
  95        3S         -0.01935  -0.11830   0.42519  -0.09220  -0.14069
  96        4S          0.74895   0.25606  -0.47060   0.00707   0.26723
  97        5PX        -0.24845   0.08677  -0.01172  -0.17508  -0.00094
  98        5PY        -0.05020   0.08683  -0.09680   0.09950   0.00128
  99        5PZ        -0.01673  -0.03663   0.01845  -0.12706   0.22429
 100        6PX        -0.00132  -0.12018  -0.29614   0.12546   0.11464
 101        6PY         0.13383   0.07032   0.02475  -0.05605  -0.02393
 102        6PZ        -0.01085  -0.01694   0.00506  -0.06755   0.11369
 103        7PX        -0.16442  -0.07506   0.20068  -0.03220  -0.10459
 104        7PY        -0.03064  -0.07514  -0.03649   0.01249  -0.00234
 105        7PZ        -0.00198  -0.00043  -0.00174  -0.00661   0.00830
 106        8D 0       -0.00200  -0.00362  -0.00119   0.00424   0.00109
 107        8D+1        0.00155   0.00177  -0.00392   0.00521   0.00018
 108        8D-1       -0.00079   0.00157  -0.00014   0.00301  -0.01282
 109        8D+2        0.02383  -0.00917   0.00103   0.01049   0.00186
 110        8D-2       -0.01163  -0.00400  -0.00360   0.00774  -0.00229
 111        9D 0       -0.00236  -0.00907   0.01143  -0.00040  -0.00261
 112        9D+1        0.00023   0.00067  -0.00138   0.00130  -0.00052
 113        9D-1       -0.00062   0.00043   0.00001   0.00005  -0.00403
 114        9D+2       -0.05707   0.05494   0.10108  -0.07047  -0.04209
 115        9D-2        0.02406   0.00173   0.00872  -0.03236   0.00465
 116 6   C  1S          0.00947  -0.21614  -0.17843   0.05195  -0.04879
 117        2S          0.10120   0.14122   0.09924  -0.11866   0.01154
 118        3S          0.00772   0.15675   0.19984  -0.29264  -0.00253
 119        4S         -0.75175  -0.39564   0.15001   0.15516  -0.16445
 120        5PX         0.33308  -0.01364  -0.02844   0.04283   0.00198
 121        5PY         0.01663  -0.15103   0.10063  -0.16362  -0.06756
 122        5PZ         0.01517  -0.03156  -0.00428  -0.06727   0.28141
 123        6PX        -0.19036  -0.07240  -0.07586   0.09630   0.01234
 124        6PY        -0.00144   0.07636   0.07533  -0.04999  -0.03773
 125        6PZ         0.00790  -0.01387  -0.00776  -0.03166   0.14478
 126        7PX         0.09237   0.05783  -0.05862   0.00382   0.04212
 127        7PY         0.10294   0.07151  -0.09195  -0.01861   0.05966
 128        7PZ         0.00085  -0.00001  -0.00341  -0.00110   0.01268
 129        8D 0       -0.00238  -0.00422  -0.00446   0.00240   0.00200
 130        8D+1       -0.00087   0.00257  -0.00177   0.00451  -0.01529
 131        8D-1       -0.00237   0.00016  -0.00060  -0.00466  -0.00064
 132        8D+2        0.03093  -0.00609  -0.00955  -0.00879  -0.00741
 133        8D-2       -0.00572   0.01455  -0.01325   0.00424   0.00143
 134        9D 0       -0.00320   0.00899  -0.00072  -0.00315   0.00512
 135        9D+1       -0.00006   0.00054  -0.00115   0.00059  -0.00030
 136        9D-1       -0.00066  -0.00026   0.00007  -0.00197   0.00145
 137        9D+2       -0.06656  -0.01088   0.00193   0.02837  -0.01263
 138        9D-2        0.02671  -0.05969   0.00109  -0.01505   0.00070
 139 7   H  1S          0.03773  -0.23899  -0.01197   0.11911  -0.01338
 140        2S          0.03657  -0.34476   0.01787   0.20168  -0.04224
 141        3S          0.03861   0.01302  -0.02279   0.00551   0.01094
 142        4PX        -0.00262  -0.01662  -0.00100   0.00721   0.00081
 143        4PY         0.00005   0.00083  -0.00251   0.00199   0.00210
 144        4PZ        -0.00006  -0.00196   0.00370  -0.00303   0.00303
 145        5PX         0.01331  -0.06582   0.01455   0.05331  -0.00994
 146        5PY         0.00193  -0.00333   0.00299  -0.01212  -0.00917
 147        5PZ        -0.00018  -0.00080   0.00184  -0.00130   0.00002
 148 8   H  1S         -0.01780   0.12488  -0.20728   0.01380   0.10964
 149        2S          0.00179   0.20426  -0.32488  -0.01703   0.18398
 150        3S         -0.03336  -0.01755   0.01651  -0.00555  -0.01043
 151        4PX         0.00567   0.00189  -0.00216   0.00386   0.00216
 152        4PY         0.00112  -0.00402   0.01042  -0.00499  -0.00719
 153        4PZ        -0.00091  -0.00169   0.00254  -0.00479   0.00432
 154        5PX         0.00008   0.01225  -0.05336  -0.00206   0.02452
 155        5PY        -0.00042  -0.03853   0.03940   0.01463  -0.02556
 156        5PZ        -0.00079  -0.00136   0.00221  -0.00380   0.00280
 157 9   H  1S         -0.17685   0.09224   0.02554  -0.02521  -0.03534
 158        2S         -0.37530   0.12618   0.08775  -0.01586  -0.06927
 159        3S          0.01842   0.03552  -0.03061   0.01118   0.01778
 160        4PX        -0.00149   0.00050  -0.00285  -0.00323   0.00156
 161        4PY         0.00760  -0.00270  -0.00691   0.00347   0.00220
 162        4PZ        -0.00061  -0.00123   0.00054  -0.00442   0.00774
 163        5PX         0.04846  -0.01538  -0.02473   0.01998   0.01439
 164        5PY         0.07051  -0.02068  -0.00522  -0.01100   0.00654
 165        5PZ        -0.00046  -0.00088   0.00013  -0.00341   0.00632
 166 10  H  1S          0.36821   0.06125   0.01954  -0.05020  -0.01060
 167        2S          0.59191   0.05188   0.00470  -0.08309  -0.01334
 168        3S          0.00417  -0.02602   0.00953  -0.00421  -0.01273
 169        4PX        -0.01523  -0.00835  -0.00563   0.00330  -0.00139
 170        4PY         0.00069  -0.00360   0.00195  -0.00381  -0.00111
 171        4PZ         0.00053  -0.00105  -0.00026  -0.00228   0.00981
 172        5PX        -0.12892  -0.00282  -0.00503   0.00578   0.00306
 173        5PY        -0.00393   0.01451  -0.00925   0.00853   0.00280
 174        5PZ         0.00018  -0.00023  -0.00068  -0.00082   0.00431
                           6         7         8         9        10
     Eigenvalues --     2.00000   2.00000   2.00000   2.00000   2.00000
   1 1   C  1S         -0.10514  -0.00635   0.02731   0.01254   0.22562
   2        2S          0.05748   0.07618   0.01402   0.03339   0.05464
   3        3S          0.15542   0.12105  -0.01856   0.06448  -0.04042
   4        4S         -0.12044  -0.20935  -0.07849  -0.14390   0.03748
   5        5PX        -0.00990  -0.18802  -0.05593  -0.06844   0.08331
   6        5PY         0.05493   0.00937  -0.03943   0.09929   0.02538
   7        5PZ        -0.22486   0.05476  -0.00419   0.22267  -0.06944
   8        6PX         0.03542   0.06260   0.00377   0.02257  -0.04448
   9        6PY         0.06045   0.08826  -0.00099   0.06221  -0.07309
  10        6PZ        -0.12586   0.01909   0.01177   0.12434  -0.03978
  11        7PX        -0.11476  -0.06483  -0.04227  -0.08195   0.02224
  12        7PY        -0.08481  -0.07240  -0.04234  -0.05926   0.01871
  13        7PZ        -0.01851   0.00048   0.00142   0.01621  -0.00463
  14        8D 0        0.00113   0.00034  -0.00056  -0.00042  -0.00294
  15        8D+1        0.00981  -0.01067   0.02183  -0.00241  -0.00296
  16        8D-1       -0.00047  -0.00212   0.01078   0.00565  -0.00404
  17        8D+2        0.00097   0.01731   0.00530   0.00099  -0.00186
  18        8D-2       -0.00221  -0.00856  -0.00058  -0.00932   0.00377
  19        9D 0        0.00307   0.00824   0.00128   0.00276  -0.00552
  20        9D+1        0.00062  -0.00116   0.00260   0.00022  -0.00051
  21        9D-1        0.00189  -0.00104   0.00396   0.00018  -0.00093
  22        9D+2       -0.00266  -0.02693  -0.00758  -0.00475   0.01947
  23        9D-2        0.01287   0.02865   0.00073   0.01297   0.00006
  24 2   C  1S          0.05002   0.00303   0.18858   0.09205   0.46243
  25        2S         -0.09396   0.08353   0.07562  -0.02245   0.02324
  26        3S         -0.16412   0.16157   0.07212  -0.04701  -0.15866
  27        4S          0.03521   0.07288   0.05429   0.02382  -0.04154
  28        5PX         0.13307   0.19591   0.01594   0.12147  -0.03946
  29        5PY         0.01469   0.07648  -0.00763   0.11535   0.04550
  30        5PZ        -0.19157   0.15217  -0.24160   0.12117  -0.00023
  31        6PX         0.04869   0.02714  -0.00013   0.03267   0.01980
  32        6PY         0.00575   0.07068  -0.01348   0.06148  -0.00795
  33        6PZ        -0.10472   0.08088  -0.13898   0.05988   0.00413
  34        7PX        -0.07701  -0.06431  -0.04801  -0.03925   0.02471
  35        7PY         0.09126   0.06715   0.03638   0.06211  -0.02728
  36        7PZ        -0.01596   0.00785  -0.01644   0.00855   0.00061
  37        8D 0       -0.00062  -0.00324  -0.00136  -0.00249  -0.00377
  38        8D+1       -0.01425  -0.00230   0.00979   0.01593  -0.00626
  39        8D-1        0.00292   0.00788  -0.01358  -0.00475   0.00306
  40        8D+2        0.00512   0.00941   0.00452  -0.00191  -0.00820
  41        8D-2        0.00782   0.00212  -0.00399   0.00915  -0.00176
  42        9D 0        0.00224   0.00921   0.00312   0.00318   0.00116
  43        9D+1       -0.00124  -0.00059   0.00170   0.00162  -0.00075
  44        9D-1        0.00286   0.00180  -0.00306  -0.00281   0.00111
  45        9D+2       -0.00598  -0.00343   0.00390  -0.00400   0.00223
  46        9D-2       -0.00109  -0.02075  -0.00975   0.00080   0.02836
  47 3   C  1S          0.17841  -0.06549  -0.01796   0.24954   0.04399
  48        2S         -0.03020   0.02224   0.01690  -0.00352   0.15310
  49        3S         -0.02948   0.06427  -0.03490   0.02735   0.18927
  50        4S         -0.24435  -0.24707  -0.13677  -0.16024   0.09094
  51        5PX        -0.07204  -0.04117  -0.03796   0.09819   0.11122
  52        5PY         0.07805   0.00642  -0.05342   0.05357   0.10328
  53        5PZ         0.06378   0.17192  -0.30763  -0.11096   0.07197
  54        6PX         0.05244   0.11076   0.02108   0.00663   0.01989
  55        6PY         0.01930   0.13053  -0.00352   0.05468  -0.03613
  56        6PZ         0.03638   0.09416  -0.17593  -0.06677   0.04318
  57        7PX        -0.03052  -0.05208  -0.03818  -0.04173   0.01245
  58        7PY         0.04943   0.04941   0.04352   0.02256  -0.01012
  59        7PZ         0.00407   0.01124  -0.02466  -0.01013   0.00676
  60        8D 0        0.00085  -0.00134  -0.00024  -0.00081  -0.00477
  61        8D+1        0.00143   0.00740  -0.01056  -0.00198   0.00160
  62        8D-1        0.01903  -0.00322   0.00677  -0.01353   0.00225
  63        8D+2        0.01686   0.01349   0.00342   0.01480  -0.00388
  64        8D-2        0.00610  -0.01010  -0.00466   0.00236   0.01050
  65        9D 0       -0.00380  -0.00705  -0.00186  -0.00257   0.00110
  66        9D+1       -0.00100  -0.00093   0.00332   0.00220  -0.00125
  67        9D-1        0.00602  -0.00026   0.00118  -0.00429   0.00080
  68        9D+2       -0.01466   0.01237   0.00056   0.00572  -0.00580
  69        9D-2       -0.02282   0.04027   0.00853  -0.01056  -0.03261
  70 4   C  1S         -0.12777   0.00013   0.02091  -0.25010  -0.15487
  71        2S         -0.02448  -0.09531  -0.03967  -0.02790   0.19971
  72        3S          0.11484  -0.26596  -0.16575   0.13657   0.27954
  73        4S          0.24356   0.47789   0.31218   0.30387  -0.07070
  74        5PX         0.11465  -0.03105   0.04171   0.11520  -0.01475
  75        5PY        -0.08107   0.01513   0.02460  -0.16447  -0.11350
  76        5PZ         0.26315   0.07285  -0.07818  -0.20315   0.05392
  77        6PX         0.02758  -0.05454  -0.11338   0.02523   0.05249
  78        6PY         0.05274   0.11695   0.01350   0.02843  -0.07300
  79        6PZ         0.15605   0.03775  -0.04502  -0.12401   0.03394
  80        7PX         0.06060   0.13048   0.10743   0.05617  -0.02243
  81        7PY         0.00845  -0.01065   0.00418   0.00758   0.00507
  82        7PZ         0.02295   0.00304  -0.00562  -0.01963   0.00577
  83        8D 0        0.00143  -0.00046  -0.00093  -0.00014  -0.00707
  84        8D+1        0.00908  -0.00631   0.01781  -0.00088  -0.00334
  85        8D-1       -0.00186  -0.00764   0.01330   0.00390  -0.00283
  86        8D+2        0.00833  -0.00042   0.00433   0.00201  -0.00010
  87        8D-2        0.00716   0.01664   0.00504   0.00671   0.00808
  88        9D 0        0.00447  -0.00076  -0.00301   0.00026   0.00091
  89        9D+1        0.00084  -0.00143   0.00459   0.00111  -0.00127
  90        9D-1        0.00257  -0.00303   0.00586  -0.00073  -0.00067
  91        9D+2       -0.02433   0.01287  -0.03588  -0.03772   0.02420
  92        9D-2       -0.02666  -0.05054  -0.00627  -0.05923  -0.00923
  93 5   C  1S          0.04531  -0.13809  -0.12991   0.13038   0.16789
  94        2S         -0.06559  -0.00670   0.10204  -0.02375   0.13021
  95        3S         -0.04469  -0.14060   0.13451   0.01247   0.03644
  96        4S         -0.12616  -0.51125  -0.34015  -0.22513   0.01417
  97        5PX        -0.16085   0.09279   0.05650  -0.12706  -0.03359
  98        5PY         0.04697   0.33262   0.11167   0.02278   0.01272
  99        5PZ         0.22435  -0.04110   0.19953  -0.08449  -0.02698
 100        6PX        -0.02910  -0.05875  -0.10856  -0.00348   0.07531
 101        6PY         0.01417   0.02029  -0.01079  -0.00623  -0.06425
 102        6PZ         0.13234  -0.03192   0.12467  -0.05151  -0.01545
 103        7PX         0.08582   0.11996   0.09426   0.08303  -0.03120
 104        7PY        -0.00041  -0.01384  -0.01669   0.01995   0.00734
 105        7PZ         0.01925  -0.00782   0.02063  -0.00841  -0.00194
 106        8D 0        0.00218   0.00037  -0.00184   0.00019  -0.00712
 107        8D+1       -0.01310  -0.00547   0.01089   0.01315  -0.00502
 108        8D-1        0.00140   0.00192  -0.00996  -0.00604   0.00395
 109        8D+2        0.00128  -0.00377  -0.00016  -0.00015   0.00453
 110        8D-2        0.01100   0.01566   0.00204   0.01405   0.00329
 111        9D 0       -0.00167  -0.00551   0.00130  -0.00065  -0.00486
 112        9D+1       -0.00210  -0.00222   0.00419   0.00262  -0.00132
 113        9D-1        0.00367   0.00021  -0.00237  -0.00427   0.00166
 114        9D+2       -0.04123   0.07687   0.06841  -0.03833  -0.02363
 115        9D-2        0.00230  -0.09912  -0.04679  -0.01669  -0.04299
 116 6   C  1S         -0.11439  -0.02122  -0.00317  -0.13857  -0.21101
 117        2S         -0.09373  -0.10019   0.01939  -0.10524   0.11238
 118        3S         -0.13339  -0.26871  -0.02001  -0.14829   0.03546
 119        4S          0.22505   0.29542   0.13747   0.26071  -0.02501
 120        5PX        -0.01965   0.18118   0.08224  -0.05834   0.01239
 121        5PY        -0.14499  -0.07762   0.03711  -0.08813  -0.03395
 122        5PZ        -0.01467  -0.05800   0.25267   0.12848  -0.09134
 123        6PX         0.07002   0.02109  -0.02835   0.07997  -0.00252
 124        6PY         0.01293  -0.00290  -0.01671  -0.01629  -0.11265
 125        6PZ        -0.00939  -0.04005   0.15087   0.07288  -0.05211
 126        7PX        -0.02148  -0.07498  -0.04836  -0.03157   0.00456
 127        7PY        -0.10433  -0.06635  -0.03846  -0.07379   0.02707
 128        7PZ        -0.00262  -0.00844   0.02340   0.01039  -0.00721
 129        8D 0        0.00056  -0.00169  -0.00254   0.00012  -0.00372
 130        8D+1        0.00088  -0.00068  -0.00582  -0.00503   0.00318
 131        8D-1        0.01880  -0.00391   0.00847  -0.01281   0.00175
 132        8D+2        0.00550   0.00136  -0.00248   0.00674  -0.00331
 133        8D-2        0.00870   0.01441  -0.00144   0.00672  -0.00160
 134        9D 0       -0.00548  -0.00771  -0.00228  -0.00726   0.00152
 135        9D+1       -0.00006  -0.00212   0.00435   0.00109  -0.00095
 136        9D-1        0.00575  -0.00099   0.00298  -0.00353   0.00028
 137        9D+2        0.01958   0.03277   0.00429   0.03148  -0.01024
 138        9D-2       -0.03007  -0.04200   0.00078  -0.00893   0.02759
 139 7   H  1S          0.06309   0.06692   0.04267  -0.05804  -0.01105
 140        2S          0.17793   0.14889   0.06448   0.00628  -0.06162
 141        3S          0.00097  -0.00522  -0.00543  -0.01255   0.00311
 142        4PX        -0.00111   0.00204   0.00235  -0.00579   0.00404
 143        4PY         0.00177  -0.00022  -0.00107   0.00114   0.00293
 144        4PZ         0.00229   0.00611  -0.01109  -0.00406   0.00263
 145        5PX         0.04388   0.03854   0.01682   0.00670  -0.01641
 146        5PY        -0.00672   0.00763   0.00443  -0.00343  -0.01116
 147        5PZ         0.00182   0.00320  -0.00650  -0.00307   0.00183
 148 8   H  1S         -0.13040  -0.05001  -0.02952  -0.17926   0.02875
 149        2S         -0.22330  -0.20961  -0.11228  -0.27664  -0.00543
 150        3S         -0.00906   0.01951   0.01708  -0.01072  -0.01229
 151        4PX        -0.00096  -0.00165   0.00031  -0.00317   0.00258
 152        4PY         0.00478   0.00272   0.00197   0.00620  -0.00757
 153        4PZ         0.00945   0.00256  -0.00288  -0.00738   0.00199
 154        5PX        -0.02677  -0.02002  -0.01930  -0.02971   0.00388
 155        5PY         0.04252   0.05021   0.01909   0.04646   0.00555
 156        5PZ         0.00779   0.00243  -0.00339  -0.00646   0.00195
 157 9   H  1S         -0.05286   0.29144   0.15909  -0.02762   0.07105
 158        2S         -0.01083   0.44693   0.22864   0.04003   0.07823
 159        3S         -0.00554   0.01302  -0.00327  -0.01388   0.00603
 160        4PX        -0.00068  -0.00719  -0.00502  -0.00046  -0.00353
 161        4PY         0.00632  -0.00770  -0.00806   0.00462  -0.00463
 162        4PZ         0.00803  -0.00165   0.00736  -0.00301  -0.00099
 163        5PX         0.00798  -0.04805  -0.02823   0.00193  -0.00112
 164        5PY        -0.01001  -0.07168  -0.03138  -0.01953  -0.01940
 165        5PZ         0.00632  -0.00190   0.00712  -0.00198  -0.00109
 166 10  H  1S         -0.04561   0.10202   0.07465  -0.07865   0.07246
 167        2S         -0.06634   0.06063   0.05637  -0.11210   0.01793
 168        3S          0.00313   0.02223   0.01625   0.00263   0.00188
 169        4PX         0.00503  -0.00181  -0.00419   0.00706  -0.00779
 170        4PY        -0.00364  -0.00266   0.00067  -0.00253  -0.00038
 171        4PZ        -0.00056  -0.00223   0.00924   0.00462  -0.00329
 172        5PX         0.01238  -0.01207  -0.01100   0.02208   0.00254
 173        5PY         0.01358   0.00979  -0.00317   0.00664  -0.00347
 174        5PZ         0.00002  -0.00211   0.00635   0.00242  -0.00193
                          11        12        13        14        15
     Eigenvalues --     2.00000   2.00000   2.00000   2.00000   2.00000
   1 1   C  1S         -0.30445   0.00399   0.36423  -0.06813   0.35472
   2        2S         -0.10533  -0.02155  -0.01675   0.06239   0.03762
   3        3S         -0.13559   0.07937  -0.05349   0.09553  -0.01271
   4        4S          0.16261  -0.04381   0.10902  -0.05426  -0.03217
   5        5PX        -0.06404   0.09985  -0.19029  -0.07477  -0.01511
   6        5PY        -0.10095   0.06582  -0.12913   0.16658  -0.07264
   7        5PZ        -0.03311   0.04108  -0.03379   0.01808  -0.02877
   8        6PX        -0.07393  -0.04625  -0.01687   0.02593   0.02337
   9        6PY        -0.10899   0.05207  -0.07366   0.14240  -0.01787
  10        6PZ        -0.01540   0.02220  -0.01999   0.00753  -0.01524
  11        7PX         0.11493  -0.16034   0.14842  -0.01804  -0.00190
  12        7PY         0.10079  -0.10713   0.10929  -0.01043  -0.00525
  13        7PZ        -0.00107   0.00358  -0.00309   0.00014  -0.00138
  14        8D 0        0.00129   0.00191  -0.00036  -0.00423   0.00045
  15        8D+1        0.00159  -0.00414   0.00062  -0.00094  -0.00071
  16        8D-1       -0.00092  -0.00131  -0.00035   0.00073  -0.00170
  17        8D+2        0.00640  -0.00838   0.01151   0.00244  -0.00183
  18        8D-2       -0.00020   0.00523  -0.00482  -0.00715   0.00492
  19        9D 0       -0.00406   0.00351   0.00562   0.00607   0.00390
  20        9D+1        0.00013  -0.00041   0.00000  -0.00009  -0.00014
  21        9D-1       -0.00014  -0.00088   0.00019   0.00018  -0.00043
  22        9D+2        0.01797   0.00291  -0.00837  -0.01168  -0.01197
  23        9D-2        0.00879  -0.02461   0.01648  -0.00254  -0.00535
  24 2   C  1S         -0.09023   0.56948   0.14894  -0.11247   0.24029
  25        2S          0.06610  -0.10099   0.17881   0.12453  -0.01710
  26        3S          0.11477  -0.23158   0.34652   0.21888  -0.05237
  27        4S         -0.09518   0.01243  -0.13533  -0.06941   0.04262
  28        5PX        -0.05593  -0.03917   0.03528   0.00435   0.04879
  29        5PY        -0.03063  -0.03770  -0.05514   0.12517  -0.11312
  30        5PZ        -0.03697   0.05914  -0.01829   0.02292  -0.00794
  31        6PX        -0.07043   0.01875  -0.11284  -0.03827   0.03742
  32        6PY         0.04670  -0.03360   0.06480   0.07534  -0.09581
  33        6PZ        -0.01782   0.03365  -0.01007   0.01058  -0.00199
  34        7PX         0.09684  -0.13842   0.11888   0.00179  -0.00296
  35        7PY        -0.09486   0.11903  -0.12888   0.00259   0.00304
  36        7PZ        -0.00137   0.00492  -0.00194   0.00050   0.00019
  37        8D 0        0.00124   0.00344   0.00081  -0.00302   0.00203
  38        8D+1       -0.00108   0.00174  -0.00269   0.00030  -0.00207
  39        8D-1       -0.00132   0.00055   0.00124   0.00122   0.00044
  40        8D+2       -0.00437   0.01088   0.00081   0.01255   0.00432
  41        8D-2       -0.00738   0.00240  -0.00357   0.00434  -0.00076
  42        9D 0        0.00130   0.00308   0.00651  -0.00135   0.00223
  43        9D+1       -0.00004   0.00005  -0.00025  -0.00002  -0.00023
  44        9D-1       -0.00025  -0.00034   0.00066   0.00033   0.00019
  45        9D+2       -0.01079  -0.01713  -0.02251  -0.00301   0.00925
  46        9D-2        0.00586  -0.00005  -0.01578  -0.03217  -0.00169
  47 3   C  1S          0.28132   0.22442   0.27706   0.04979  -0.29710
  48        2S          0.08522  -0.04981  -0.11901  -0.01823  -0.09315
  49        3S          0.09643  -0.19338  -0.17225  -0.30284  -0.01442
  50        4S          0.13176  -0.30748   0.39209   0.08631  -0.06344
  51        5PX         0.02438  -0.26647   0.11824  -0.10354  -0.06795
  52        5PY         0.00642  -0.09490  -0.08942  -0.25740   0.04642
  53        5PZ        -0.02678   0.01371   0.02711   0.02503   0.01213
  54        6PX         0.00016  -0.00947  -0.10751  -0.09050   0.04086
  55        6PY         0.08009  -0.10095   0.06298  -0.10042  -0.03060
  56        6PZ        -0.01328   0.00833   0.01514   0.01260   0.00838
  57        7PX         0.03571  -0.02770   0.05839   0.01000  -0.01105
  58        7PY        -0.10323   0.09203  -0.10017  -0.00449   0.00300
  59        7PZ        -0.00093   0.00161   0.00183   0.00098   0.00180
  60        8D 0       -0.00284   0.00482  -0.00023  -0.00405   0.00329
  61        8D+1       -0.00168   0.00045   0.00092   0.00145  -0.00014
  62        8D-1        0.00095  -0.00463   0.00291  -0.00001   0.00051
  63        8D+2       -0.01296   0.00814  -0.00934   0.00372  -0.00012
  64        8D-2       -0.00224  -0.00426  -0.00930  -0.01714   0.00243
  65        9D 0        0.00828   0.00413  -0.00463   0.00019  -0.00395
  66        9D+1       -0.00018  -0.00018  -0.00032   0.00007  -0.00045
  67        9D-1        0.00009  -0.00140   0.00098   0.00016   0.00011
  68        9D+2       -0.00322  -0.06384   0.04487   0.02122   0.00596
  69        9D-2        0.03686  -0.00660   0.04258   0.03832  -0.02198
  70 4   C  1S         -0.49914   0.24815   0.29099  -0.34845  -0.57547
  71        2S          0.00759  -0.14802   0.00394   0.05066  -0.12768
  72        3S          0.04473  -0.29468   0.03958   0.03668  -0.05165
  73        4S         -0.29030   0.21452  -0.43887  -0.21344   0.18102
  74        5PX        -0.17166   0.02585   0.00563   0.14429  -0.03682
  75        5PY         0.04232   0.15927   0.09036   0.31332  -0.02177
  76        5PZ        -0.01342  -0.05145   0.05098   0.02191   0.00474
  77        6PX         0.16489  -0.13160   0.10527   0.05826  -0.07404
  78        6PY        -0.00578   0.02991  -0.04299  -0.03690   0.02943
  79        6PZ        -0.00554  -0.03004   0.02978   0.01092   0.00444
  80        7PX        -0.15614   0.11194  -0.13864  -0.00216   0.03035
  81        7PY        -0.05527   0.01750  -0.01593  -0.01835  -0.00708
  82        7PZ         0.00023  -0.00431   0.00416   0.00072   0.00129
  83        8D 0        0.00146   0.00392   0.00287  -0.00461   0.00496
  84        8D+1        0.00016  -0.00389   0.00087   0.00021  -0.00135
  85        8D-1        0.00129  -0.00076  -0.00103  -0.00115  -0.00041
  86        8D+2       -0.01103   0.00695  -0.00732   0.00194   0.00283
  87        8D-2       -0.00342  -0.00603  -0.01224  -0.01519  -0.00166
  88        9D 0       -0.00672  -0.00296   0.00277  -0.01267  -0.00457
  89        9D+1       -0.00012  -0.00070   0.00000   0.00016  -0.00050
  90        9D-1        0.00049  -0.00107   0.00008  -0.00038  -0.00012
  91        9D+2        0.09194  -0.06159   0.02210  -0.00078  -0.00829
  92        9D-2       -0.01040   0.04355   0.01025   0.11300  -0.00142
  93 5   C  1S          0.14404   0.02477   0.27001   0.08629   0.15377
  94        2S         -0.09948  -0.04368  -0.06666   0.06788  -0.02153
  95        3S         -0.27559   0.02113  -0.05037   0.04940  -0.00391
  96        4S          0.36160  -0.09100   0.29045   0.07123  -0.06101
  97        5PX         0.10378   0.02797  -0.02948  -0.15243   0.08152
  98        5PY        -0.03011  -0.02942  -0.02701   0.02552  -0.07417
  99        5PZ        -0.00895  -0.07261   0.03282   0.01619  -0.01960
 100        6PX         0.19822  -0.20793   0.13416   0.01996  -0.04377
 101        6PY         0.07225   0.08284   0.02935  -0.01302   0.01807
 102        6PZ        -0.00279  -0.04300   0.01868   0.00746  -0.01046
 103        7PX        -0.13600   0.13700  -0.16872  -0.06624   0.06673
 104        7PY         0.02140  -0.04168   0.03494   0.03491  -0.01349
 105        7PZ         0.00070  -0.00626   0.00250   0.00022  -0.00100
 106        8D 0        0.00214   0.00229   0.00353  -0.00437   0.00239
 107        8D+1        0.00031   0.00170  -0.00275  -0.00081  -0.00116
 108        8D-1        0.00091   0.00101   0.00048  -0.00068   0.00163
 109        8D+2        0.00591  -0.00887   0.00849   0.00117  -0.00292
 110        8D-2       -0.00865  -0.00895  -0.00574  -0.01083  -0.00301
 111        9D 0        0.00262   0.00430   0.00817   0.00542   0.00562
 112        9D+1        0.00027   0.00006  -0.00055  -0.00029  -0.00028
 113        9D-1        0.00044  -0.00043   0.00072  -0.00016   0.00061
 114        9D+2       -0.01226   0.05271  -0.03759  -0.03128   0.02262
 115        9D-2        0.00421   0.06702  -0.00389   0.01070   0.04007
 116 6   C  1S         -0.34377  -0.32136   0.01677   0.16080   0.25677
 117        2S         -0.02045   0.05539  -0.16509   0.00149   0.03097
 118        3S          0.04883   0.29572  -0.15937  -0.06450   0.08250
 119        4S         -0.30267   0.13778  -0.19274   0.13209  -0.05092
 120        5PX         0.14816  -0.04298   0.05642  -0.11335  -0.01413
 121        5PY         0.10933  -0.04037   0.10567  -0.07386   0.06775
 122        5PZ        -0.01766  -0.02892  -0.00947   0.01357  -0.03700
 123        6PX        -0.11509  -0.05622  -0.03665   0.04609  -0.03545
 124        6PY        -0.00811   0.09720  -0.00357   0.02309   0.05974
 125        6PZ        -0.00793  -0.01653  -0.00614   0.00596  -0.02028
 126        7PX         0.04028  -0.02973   0.03142   0.01345  -0.00911
 127        7PY         0.10470  -0.14092   0.13855   0.00774  -0.02736
 128        7PZ        -0.00017  -0.00205  -0.00136  -0.00002  -0.00241
 129        8D 0        0.00353   0.00006   0.00455  -0.00210   0.00006
 130        8D+1        0.00141   0.00079   0.00015  -0.00112   0.00158
 131        8D-1        0.00097  -0.00476   0.00280  -0.00004   0.00036
 132        8D+2        0.00371  -0.00152   0.00868   0.01003  -0.00277
 133        8D-2       -0.00416   0.00243  -0.00407   0.00661  -0.00290
 134        9D 0       -0.00208   0.00048  -0.01057  -0.00612   0.00151
 135        9D+1        0.00027  -0.00040  -0.00025  -0.00024  -0.00022
 136        9D-1        0.00014  -0.00156   0.00088   0.00012  -0.00004
 137        9D+2       -0.01143  -0.03010   0.02134   0.03154  -0.01570
 138        9D-2        0.02821  -0.04360   0.03299  -0.02354  -0.00017
 139 7   H  1S          0.00288   0.18617  -0.17422   0.09027   0.00475
 140        2S         -0.05583   0.27679  -0.23491   0.01161   0.04975
 141        3S         -0.00164   0.00680  -0.00122   0.00303  -0.00112
 142        4PX         0.00344   0.00500  -0.01072   0.00339  -0.00148
 143        4PY        -0.00001  -0.00168  -0.00294  -0.00600   0.00112
 144        4PZ        -0.00092   0.00050   0.00097   0.00087   0.00047
 145        5PX        -0.01782   0.05286  -0.04227  -0.00503   0.01700
 146        5PY         0.00393   0.00579   0.00872   0.01870  -0.00627
 147        5PZ        -0.00034   0.00023   0.00061   0.00036   0.00043
 148 8   H  1S          0.12145   0.01877   0.07474   0.22479  -0.06039
 149        2S          0.22011   0.01451   0.21697   0.34958  -0.08620
 150        3S          0.00629   0.02147  -0.00591   0.02275   0.01032
 151        4PX         0.00059   0.00011   0.00111   0.00986  -0.00294
 152        4PY        -0.00624   0.00491  -0.00081  -0.00533   0.00347
 153        4PZ        -0.00044  -0.00183   0.00183   0.00075   0.00021
 154        5PX         0.04374  -0.01183   0.02490   0.01328  -0.00537
 155        5PY        -0.02997  -0.00736  -0.04693  -0.07219   0.01819
 156        5PZ        -0.00035  -0.00138   0.00153   0.00058   0.00030
 157 9   H  1S         -0.05403  -0.04301  -0.09042  -0.02047  -0.04051
 158        2S         -0.16711  -0.05778  -0.17082  -0.11535  -0.04431
 159        3S          0.01065  -0.00899   0.00310  -0.00938  -0.00944
 160        4PX         0.00359   0.00226   0.00253  -0.00366   0.00294
 161        4PY         0.00267   0.00185   0.00426  -0.00003   0.00086
 162        4PZ        -0.00027  -0.00261   0.00116   0.00054  -0.00069
 163        5PX         0.01509  -0.00571   0.02667   0.02993  -0.00865
 164        5PY         0.04017   0.01829   0.03141   0.01878   0.01332
 165        5PZ        -0.00017  -0.00219   0.00084   0.00038  -0.00064
 166 10  H  1S          0.10876   0.00285  -0.04168  -0.07147  -0.00870
 167        2S          0.19249   0.00705   0.07214  -0.09639   0.03569
 168        3S          0.00208   0.01274  -0.00346   0.00028  -0.00356
 169        4PX        -0.00513  -0.00188   0.00769   0.00489   0.00015
 170        4PY         0.00252  -0.00059   0.00199  -0.00162   0.00132
 171        4PZ        -0.00059  -0.00104  -0.00036   0.00045  -0.00132
 172        5PX        -0.04509   0.00551  -0.03265   0.01680  -0.01133
 173        5PY        -0.00922   0.01276  -0.01247   0.01014  -0.00437
 174        5PZ        -0.00013  -0.00073  -0.00021   0.00010  -0.00069
                          16        17        18        19        20
     Eigenvalues --     2.00000   2.00000   2.00000   2.00000   2.00000
   1 1   C  1S          0.13286   0.57892  -0.38407   0.03749  -0.22746
   2        2S          0.04347   0.00494   0.15183  -0.13535  -0.08957
   3        3S          0.03402  -0.15458   0.25422  -0.26059  -0.06064
   4        4S         -0.18733  -0.05689   0.03602  -0.08491   0.06662
   5        5PX        -0.10447  -0.03408  -0.26708  -0.05784   0.03742
   6        5PY         0.03002   0.01254   0.02047  -0.08070  -0.07590
   7        5PZ         0.00940  -0.00094   0.02445  -0.00162   0.01089
   8        6PX         0.05766  -0.02027  -0.00685  -0.03159  -0.04304
   9        6PY         0.09285  -0.02992   0.03265  -0.05173  -0.05419
  10        6PZ         0.00698  -0.00071   0.01179  -0.00045   0.00413
  11        7PX        -0.10707  -0.02304  -0.03624  -0.05823   0.00168
  12        7PY        -0.10558  -0.02413  -0.01567  -0.08516  -0.00545
  13        7PZ         0.00109  -0.00014   0.00087   0.00035   0.00035
  14        8D 0       -0.00047  -0.00090  -0.00553   0.00611   0.00514
  15        8D+1        0.00179  -0.00012  -0.00061  -0.00081  -0.00233
  16        8D-1        0.00103  -0.00006   0.00095  -0.00076  -0.00068
  17        8D+2       -0.00063  -0.00307   0.00175  -0.00783  -0.00378
  18        8D-2       -0.00214   0.00103  -0.00208  -0.00369   0.00085
  19        9D 0        0.00932   0.00713   0.00281   0.00314  -0.00555
  20        9D+1        0.00024  -0.00001  -0.00000  -0.00009  -0.00025
  21        9D-1        0.00029  -0.00001   0.00021  -0.00030  -0.00032
  22        9D+2       -0.02200   0.00563   0.00835   0.00564   0.00767
  23        9D-2        0.00012  -0.01291   0.02852  -0.02119  -0.00556
  24 2   C  1S         -0.31260  -0.26191   0.18243  -0.00575   0.28509
  25        2S         -0.06021  -0.04559   0.08998  -0.14178  -0.10716
  26        3S         -0.02682  -0.05637  -0.02881  -0.25262  -0.21909
  27        4S          0.14640   0.04037  -0.13564   0.10796   0.01310
  28        5PX         0.15845   0.03768   0.32226   0.05182  -0.00219
  29        5PY        -0.01656  -0.02136  -0.05796  -0.10278  -0.07916
  30        5PZ        -0.01680   0.00121   0.02093   0.00590   0.03144
  31        6PX         0.09285   0.04950  -0.04625   0.07875   0.01691
  32        6PY        -0.03461  -0.02722  -0.00735  -0.12356  -0.05285
  33        6PZ        -0.00968   0.00065   0.00956   0.00434   0.01720
  34        7PX        -0.10588  -0.01678  -0.03183  -0.10675  -0.03302
  35        7PY         0.11480   0.02509   0.00649   0.06778   0.00359
  36        7PZ        -0.00088   0.00002   0.00060   0.00090   0.00189
  37        8D 0       -0.00113   0.00193  -0.00438   0.00590   0.00444
  38        8D+1        0.00170  -0.00016   0.00108  -0.00019  -0.00040
  39        8D-1       -0.00165   0.00016   0.00059   0.00001   0.00143
  40        8D+2        0.00818   0.00120   0.01321  -0.00077  -0.00348
  41        8D-2        0.00359   0.00343   0.00924   0.00238   0.00091
  42        9D 0       -0.00327  -0.00514   0.00723  -0.00247   0.00245
  43        9D+1        0.00024  -0.00002   0.00011  -0.00004  -0.00011
  44        9D-1       -0.00050   0.00005   0.00009  -0.00007   0.00029
  45        9D+2        0.00681   0.00476  -0.01436   0.01933  -0.00097
  46        9D-2       -0.02095  -0.00185  -0.03346  -0.00106   0.01638
  47 3   C  1S          0.19956   0.42223  -0.05877  -0.20887   0.51827
  48        2S          0.07830   0.00981  -0.04417  -0.13121  -0.07056
  49        3S          0.05983  -0.12301  -0.11783  -0.21179  -0.13192
  50        4S         -0.40201  -0.06486   0.08406  -0.06289   0.03940
  51        5PX        -0.17989  -0.06415  -0.06525  -0.07580   0.00729
  52        5PY         0.11614   0.03517   0.16015   0.10136   0.09282
  53        5PZ        -0.03707   0.00360   0.01112   0.00145   0.03171
  54        6PX         0.13430  -0.01780   0.06444  -0.01317  -0.03711
  55        6PY         0.06728  -0.07720   0.05701  -0.18316  -0.10226
  56        6PZ        -0.02103   0.00199   0.00483   0.00154   0.01764
  57        7PX        -0.03523  -0.00332   0.03402  -0.01224   0.00218
  58        7PY         0.07120   0.01344   0.00790   0.12667   0.05070
  59        7PZ        -0.00282   0.00024   0.00003   0.00057   0.00226
  60        8D 0       -0.00190  -0.00081  -0.00313   0.00259   0.00276
  61        8D+1       -0.00130   0.00014   0.00093  -0.00018   0.00128
  62        8D-1       -0.00031   0.00009  -0.00056  -0.00077  -0.00101
  63        8D+2        0.01113   0.00171   0.00703   0.00294  -0.00098
  64        8D-2        0.00125   0.00176   0.00115   0.01191   0.01033
  65        9D 0        0.00099   0.00320  -0.01278  -0.00662   0.00022
  66        9D+1        0.00040  -0.00003   0.00020  -0.00015  -0.00024
  67        9D-1       -0.00022   0.00004  -0.00008  -0.00026  -0.00018
  68        9D+2       -0.03032  -0.00512   0.04979   0.02511   0.00785
  69        9D-2       -0.00402  -0.03190  -0.01592  -0.08452  -0.05319
  70 4   C  1S          0.18715  -0.13113   0.06179  -0.10400  -0.09344
  71        2S         -0.03092   0.01965   0.05119   0.10985   0.05866
  72        3S         -0.17274   0.00831  -0.05763   0.22010   0.18746
  73        4S          0.35066  -0.01220  -0.16911   0.06956  -0.01529
  74        5PX        -0.09605  -0.01239  -0.09074   0.08340   0.02121
  75        5PY        -0.01743   0.02876  -0.00800   0.05943  -0.00223
  76        5PZ        -0.02407   0.00325   0.00694  -0.01227   0.00700
  77        6PX        -0.02095  -0.09270  -0.05902  -0.13613  -0.07331
  78        6PY         0.09897  -0.05941   0.03563  -0.13960  -0.10547
  79        6PZ        -0.01391   0.00184   0.00239  -0.00653   0.00343
  80        7PX         0.08025   0.00158  -0.04205   0.13740   0.05656
  81        7PY        -0.02316   0.00544   0.01781   0.02160   0.01909
  82        7PZ        -0.00186   0.00023  -0.00040  -0.00065   0.00017
  83        8D 0       -0.00071  -0.00116  -0.00166  -0.00300  -0.00015
  84        8D+1        0.00130  -0.00006   0.00033  -0.00110  -0.00163
  85        8D-1        0.00156  -0.00015  -0.00057  -0.00006  -0.00141
  86        8D+2        0.00399   0.00445   0.00308   0.01475   0.00662
  87        8D-2        0.00586  -0.00367  -0.00785  -0.00121   0.00225
  88        9D 0       -0.00441  -0.00275  -0.00040   0.00162   0.00429
  89        9D+1        0.00038  -0.00002   0.00018  -0.00025  -0.00036
  90        9D-1        0.00049  -0.00004  -0.00028  -0.00017  -0.00064
  91        9D+2        0.02904  -0.02138   0.04313  -0.04433  -0.02695
  92        9D-2       -0.01195   0.02972   0.02911   0.07105   0.02665
  93 5   C  1S          0.62185  -0.57773  -0.24786   0.01796  -0.11588
  94        2S          0.03051   0.03581   0.00748   0.21061   0.07722
  95        3S         -0.15944   0.16767  -0.02825   0.40419   0.21330
  96        4S         -0.26158   0.06313   0.25965  -0.44182  -0.14316
  97        5PX         0.10492   0.03001   0.06085  -0.03136  -0.00804
  98        5PY        -0.01108  -0.06932  -0.19069   0.02515   0.06059
  99        5PZ         0.00658   0.00073   0.01104  -0.02103  -0.01700
 100        6PX        -0.04881  -0.04549  -0.00427  -0.01496   0.00521
 101        6PY         0.04568  -0.00228   0.07634  -0.15801  -0.11553
 102        6PZ         0.00480   0.00032   0.00490  -0.01185  -0.01123
 103        7PX         0.12623   0.01376   0.01203   0.04920   0.00624
 104        7PY         0.00373  -0.01614  -0.02187   0.02580  -0.01041
 105        7PZ         0.00104  -0.00000   0.00002  -0.00149  -0.00212
 106        8D 0       -0.00043  -0.00177  -0.00181  -0.00339  -0.00073
 107        8D+1        0.00187  -0.00020   0.00010   0.00019  -0.00085
 108        8D-1       -0.00100   0.00006  -0.00093   0.00068   0.00060
 109        8D+2       -0.00634   0.00015  -0.00194   0.00688   0.00479
 110        8D-2        0.00145  -0.00589  -0.00819   0.00051   0.00342
 111        9D 0        0.00446  -0.00254  -0.00356   0.01110   0.00028
 112        9D+1        0.00056  -0.00006  -0.00007  -0.00002  -0.00040
 113        9D-1       -0.00042   0.00004  -0.00034   0.00007   0.00004
 114        9D+2        0.04720   0.03006   0.03938   0.01850  -0.00633
 115        9D-2        0.03063   0.01569   0.07669  -0.05287  -0.04694
 116 6   C  1S          0.15860  -0.12799  -0.03664  -0.32750   0.63871
 117        2S          0.02879   0.04330   0.05674  -0.13943  -0.03635
 118        3S          0.07136   0.13651   0.13714  -0.09105  -0.15875
 119        4S          0.27728   0.01594  -0.04890   0.39394   0.01822
 120        5PX        -0.02580  -0.03393  -0.11512  -0.05864   0.02551
 121        5PY         0.06100   0.08413   0.14896   0.16429   0.04133
 122        5PZ         0.02475  -0.00148   0.01939  -0.01627  -0.01676
 123        6PX        -0.02186  -0.06226  -0.10234   0.03255   0.05023
 124        6PY         0.12782  -0.00794   0.18474  -0.12379  -0.10808
 125        6PZ         0.01502  -0.00098   0.00967  -0.00878  -0.01062
 126        7PX        -0.05654  -0.00102   0.02124  -0.06575  -0.01080
 127        7PY        -0.10051  -0.02361  -0.03888  -0.00314   0.01804
 128        7PZ         0.00251  -0.00019   0.00074  -0.00095  -0.00190
 129        8D 0       -0.00178  -0.00144  -0.00548   0.00155   0.00066
 130        8D+1       -0.00051   0.00001  -0.00117   0.00069   0.00013
 131        8D-1       -0.00013   0.00007  -0.00054  -0.00083  -0.00115
 132        8D+2        0.00039   0.00124   0.00709  -0.00378  -0.00421
 133        8D-2        0.00260  -0.00609   0.00094  -0.01555  -0.00647
 134        9D 0       -0.00520  -0.00279  -0.00855  -0.01152   0.00521
 135        9D+1        0.00048  -0.00003  -0.00008  -0.00008  -0.00043
 136        9D-1       -0.00001   0.00003  -0.00002  -0.00031  -0.00034
 137        9D+2        0.00855   0.00737   0.05213   0.04981   0.00101
 138        9D-2       -0.03453   0.02060  -0.01477   0.07219   0.04108
 139 7   H  1S          0.19710   0.05043   0.04524  -0.00521  -0.06270
 140        2S          0.30291   0.06067   0.06912   0.02094  -0.03926
 141        3S          0.00543   0.00334   0.00532   0.00444   0.00450
 142        4PX         0.00889   0.00124   0.00053  -0.00354  -0.00627
 143        4PY         0.00217   0.00074   0.00235   0.00281   0.00268
 144        4PZ        -0.00133   0.00013   0.00037   0.00007   0.00113
 145        5PX         0.06390   0.01258   0.02699   0.01157  -0.00244
 146        5PY        -0.00682  -0.00658  -0.01471  -0.02097  -0.01358
 147        5PZ        -0.00079   0.00007   0.00007   0.00009   0.00061
 148 8   H  1S         -0.00538   0.04157   0.06398   0.06254   0.01355
 149        2S         -0.07725   0.04827   0.08579   0.06375   0.00703
 150        3S          0.01800   0.00057  -0.00534   0.00710  -0.00184
 151        4PX        -0.00184   0.00176   0.00085   0.00517   0.00189
 152        4PY        -0.00002  -0.00190  -0.00337  -0.00463  -0.00263
 153        4PZ        -0.00087   0.00011   0.00022  -0.00043   0.00025
[...]
 (Enter /home/ubuntu/g16/l103.exe)

 GradGradGradGradGradGradGradGradGradGradGradGradGradGradGradGradGradGrad
 Berny optimization.
 Red2BG is reusing G-inverse.
 Internal  Forces:  Max     0.000075059 RMS     0.000025270
 Search for a local minimum.
 Step number   1 out of a maximum of    2
 All quantities printed in internal units (Hartrees-Bohrs-Radians)
 Second derivative matrix not updated -- analytic derivatives used.
 ITU=  0
     Eigenvalues ---    0.01321   0.01662   0.01827   0.02378   0.02569
     Eigenvalues ---    0.03301   0.04607   0.05053   0.10391   0.10880
     Eigenvalues ---    0.11405   0.11632   0.19227   0.19811   0.27970
     Eigenvalues ---    0.35657   0.35670   0.36039   0.36261   0.39386
     Eigenvalues ---    0.39727   0.49135   0.49536   0.81549
 Angle between quadratic step and forces=  33.50 degrees.
 Linear search not attempted -- first point.
 Iteration  1 RMS(Cart)=  0.00024141 RMS(Int)=  0.00000009
 Iteration  2 RMS(Cart)=  0.00000009 RMS(Int)=  0.00000003
 ITry= 1 IFail=0 DXMaxC= 9.71D-04 DCOld= 1.00D+10 DXMaxT= 3.00D-01 DXLimC= 3.00D+00 Rises=F
 Variable       Old X    -DE/DX   Delta X   Delta X   Delta X     New X
                                 (Linear)    (Quad)   (Total)
    R1        2.36888   0.00000   0.00000  -0.00001  -0.00001   2.36887
    R2        2.62242  -0.00002   0.00000   0.00001   0.00001   2.62243
    R3        2.62265  -0.00004   0.00000  -0.00022  -0.00022   2.62243
    R4        2.67411  -0.00003   0.00000  -0.00006  -0.00006   2.67405
    R5        2.05691   0.00000   0.00000  -0.00000  -0.00000   2.05691
    R6        2.66194   0.00007   0.00000   0.00022   0.00022   2.66216
    R7        2.06341  -0.00000   0.00000  -0.00001  -0.00001   2.06340
    R8        2.67412  -0.00003   0.00000  -0.00007  -0.00007   2.67405
    R9        2.06340   0.00000   0.00000   0.00000   0.00000   2.06340
   R10        2.05690  -0.00000   0.00000   0.00001   0.00001   2.05691
    A1        2.21999  -0.00003   0.00000  -0.00054  -0.00054   2.21945
    A2        2.21888   0.00004   0.00000   0.00057   0.00057   2.21945
    A3        1.92547   0.00000   0.00000  -0.00013  -0.00013   1.92534
    A4        2.21800   0.00002   0.00000   0.00025   0.00025   2.21825
    A5        2.13972  -0.00002   0.00000  -0.00012  -0.00012   2.13960
    A6        2.13854  -0.00003   0.00000  -0.00014  -0.00014   2.13840
    A7        2.06845   0.00005   0.00000   0.00036   0.00036   2.06881
    A8        2.07620  -0.00002   0.00000  -0.00023  -0.00023   2.07598
    A9        2.13836   0.00000   0.00000   0.00004   0.00004   2.13840
   A10        2.07607  -0.00001   0.00000  -0.00009  -0.00009   2.07598
   A11        2.06876   0.00000   0.00000   0.00005   0.00005   2.06881
   A12        1.92514   0.00001   0.00000   0.00019   0.00019   1.92534
   A13        2.21772   0.00007   0.00000   0.00052   0.00052   2.21825
   A14        2.14032  -0.00008   0.00000  -0.00072  -0.00072   2.13960
    D1        0.00015  -0.00000   0.00000  -0.00015  -0.00015  -0.00000
    D2       -0.00016   0.00001   0.00000   0.00016   0.00016   0.00000
    D3        3.14159  -0.00000   0.00000   0.00000   0.00000   3.14159
    D4        0.00008  -0.00001   0.00000  -0.00008  -0.00008  -0.00000
    D5        3.14145   0.00000   0.00000   0.00014   0.00014   3.14159
    D6       -0.00027   0.00001   0.00000   0.00027   0.00027   0.00000
    D7        3.14140   0.00001   0.00000   0.00019   0.00019  -3.14159
    D8        3.14154   0.00000   0.00000   0.00006   0.00006   3.14159
    D9        0.00002  -0.00000   0.00000  -0.00002  -0.00002   0.00000
   D10        0.00026  -0.00001   0.00000  -0.00026  -0.00026   0.00000
   D11        3.14158  -0.00000   0.00000   0.00001   0.00001  -3.14159
   D12       -3.14141  -0.00001   0.00000  -0.00018  -0.00018   3.14159
   D13       -0.00009   0.00000   0.00000   0.00009   0.00009   0.00000
   D14       -0.00003  -0.00000   0.00000   0.00003   0.00003  -0.00000
   D15        3.14140   0.00001   0.00000   0.00019   0.00019  -3.14159
   D16       -3.14136  -0.00001   0.00000  -0.00024  -0.00024   3.14159
   D17        0.00008  -0.00000   0.00000  -0.00008  -0.00008   0.00000
         Item               Value     Threshold  Converged?
 Maximum Force            0.000075     0.000450     YES
 RMS     Force            0.000025     0.000300     YES
 Maximum Displacement     0.000971     0.001800     YES
 RMS     Displacement     0.000241     0.001200     YES
 Predicted change in Energy=-1.011026D-07
 Optimization completed.
    -- Stationary point found.
                           ----------------------------
                           !   Optimized Parameters   !
                           ! (Angstroms and Degrees)  !
 --------------------------                            --------------------------
 ! Name  Definition              Value          Derivative Info.                !
 --------------------------------------------------------------------------------
 ! R1    R(1,2)                  1.2536         -DE/DX =    0.0                 !
 ! R2    R(1,6)                  1.3877         -DE/DX =    0.0                 !
 ! R3    R(2,3)                  1.3878         -DE/DX =    0.0                 !
 ! R4    R(3,4)                  1.4151         -DE/DX =    0.0                 !
 ! R5    R(3,7)                  1.0885         -DE/DX =    0.0                 !
 ! R6    R(4,5)                  1.4086         -DE/DX =    0.0001              !
 ! R7    R(4,8)                  1.0919         -DE/DX =    0.0                 !
 ! R8    R(5,6)                  1.4151         -DE/DX =    0.0                 !
 ! R9    R(5,9)                  1.0919         -DE/DX =    0.0                 !
 ! R10   R(6,10)                 1.0885         -DE/DX =    0.0                 !
 ! A1    A(2,1,6)              127.1959         -DE/DX =    0.0                 !
 ! A2    A(1,2,3)              127.1323         -DE/DX =    0.0                 !
 ! A3    A(2,3,4)              110.3212         -DE/DX =    0.0                 !
 ! A4    A(2,3,7)              127.082          -DE/DX =    0.0                 !
 ! A5    A(4,3,7)              122.5968         -DE/DX =    0.0                 !
 ! A6    A(3,4,5)              122.5292         -DE/DX =    0.0                 !
 ! A7    A(3,4,8)              118.5132         -DE/DX =    0.0                 !
 ! A8    A(5,4,8)              118.9576         -DE/DX =    0.0                 !
 ! A9    A(4,5,6)              122.5188         -DE/DX =    0.0                 !
 ! A10   A(4,5,9)              118.9499         -DE/DX =    0.0                 !
 ! A11   A(6,5,9)              118.5313         -DE/DX =    0.0                 !
 ! A12   A(1,6,5)              110.3025         -DE/DX =    0.0                 !
 ! A13   A(1,6,10)             127.0662         -DE/DX =    0.0001              !
 ! A14   A(5,6,10)             122.6312         -DE/DX =   -0.0001              !
 ! D1    D(6,1,2,3)              0.0083         -DE/DX =    0.0                 !
 ! D2    D(2,1,6,5)             -0.0094         -DE/DX =    0.0                 !
 ! D3    D(2,1,6,10)           180.0            -DE/DX =    0.0                 !
 ! D4    D(1,2,3,4)              0.0047         -DE/DX =    0.0                 !
 ! D5    D(1,2,3,7)            179.992          -DE/DX =    0.0                 !
 ! D6    D(2,3,4,5)             -0.0153         -DE/DX =    0.0                 !
 ! D7    D(2,3,4,8)           -180.0111         -DE/DX =    0.0                 !
 ! D8    D(7,3,4,5)            179.9968         -DE/DX =    0.0                 !
 ! D9    D(7,3,4,8)              0.0009         -DE/DX =    0.0                 !
 ! D10   D(3,4,5,6)              0.0147         -DE/DX =    0.0                 !
 ! D11   D(3,4,5,9)           -180.0008         -DE/DX =    0.0                 !
 ! D12   D(8,4,5,6)            180.0106         -DE/DX =    0.0                 !
 ! D13   D(8,4,5,9)             -0.0049         -DE/DX =    0.0                 !
 ! D14   D(4,5,6,1)             -0.0019         -DE/DX =    0.0                 !
 ! D15   D(4,5,6,10)          -180.0108         -DE/DX =    0.0                 !
 ! D16   D(9,5,6,1)            180.0135         -DE/DX =    0.0                 !
 ! D17   D(9,5,6,10)             0.0046         -DE/DX =    0.0                 !
 --------------------------------------------------------------------------------
 GradGradGradGradGradGradGradGradGradGradGradGradGradGradGradGradGradGrad

 Leave Link  103 at Sat Nov  5 23:12:12 2016, MaxMem=   524288000 cpu:               0.0 elap:               0.0
 (Enter /home/ubuntu/g16/l9999.exe)

 ----------------------------------------------------------------------

 Electric dipole moment (input orientation):
 (Debye = 10**-18 statcoulomb cm , SI units = C m)
                  (au)            (Debye)         (10**-30 SI)
   Tot        0.672076D+00      0.170825D+01      0.569809D+01
   x          0.613561D+00      0.155952D+01      0.520199D+01
   y         -0.273501D+00     -0.695170D+00     -0.231884D+01
   z          0.206229D-01      0.524182D-01      0.174848D+00

 Dipole polarizability, Alpha (input orientation).
 (esu units = cm**3 , SI units = C**2 m**2 J**-1)
 Alpha(0;0):
               (au)            (10**-24 esu)      (10**-40 SI)
   iso        0.679646D+02      0.100713D+02      0.112058D+02
   aniso      0.396340D+02      0.587315D+01      0.653476D+01
   xx         0.770722D+02      0.114209D+02      0.127075D+02
   yx         0.405755D+01      0.601267D+00      0.668999D+00
   yy         0.844705D+02      0.125172D+02      0.139273D+02
   zx         0.118572D+01      0.175705D+00      0.195498D+00
   zy         0.161567D+00      0.239418D-01      0.266388D-01
   zz         0.423511D+02      0.627579D+01      0.698276D+01

 ----------------------------------------------------------------------

 Dipole orientation:
     6         -0.58686841         -1.45613624         -1.74124498
     6          0.34630259          0.72119623         -1.74503006
     6          0.97093654          2.17958205          0.34332858
     6          0.40545520          0.86067088          2.59978278
     6         -0.64354914         -1.58585504          2.60323409
     6         -1.21069797         -2.90997446          0.35023783
     1          1.78142430          4.07007965          0.33823416
     1          0.79997084          1.78104624          4.40392603
     1         -1.03617517         -2.50167372          4.41009020
     1         -2.02097191         -4.80055909          0.34886896

 Electric dipole moment (dipole orientation):
 (Debye = 10**-18 statcoulomb cm , SI units = C m)
                  (au)            (Debye)         (10**-30 SI)
   Tot        0.672076D+00      0.170825D+01      0.569809D+01
   x          0.000000D+00      0.000000D+00      0.000000D+00
   y          0.000000D+00      0.000000D+00      0.000000D+00
   z          0.672076D+00      0.170825D+01      0.569809D+01

 Dipole polarizability, Alpha (dipole orientation).
 (esu units = cm**3 , SI units = C**2 m**2 J**-1)
 Alpha(0;0):
               (au)            (10**-24 esu)      (10**-40 SI)
   iso        0.679646D+02      0.100713D+02      0.112058D+02
   aniso      0.396340D+02      0.587315D+01      0.653476D+01
   xx         0.491343D+02      0.728095D+01      0.810115D+01
   yx         0.159188D+02      0.235892D+01      0.262465D+01
   yy         0.794473D+02      0.117729D+02      0.130991D+02
   zx        -0.127834D-01     -0.189431D-02     -0.210770D-02
   zy        -0.156314D-01     -0.231634D-02     -0.257727D-02
   zz         0.753122D+02      0.111601D+02      0.124173D+02

 ----------------------------------------------------------------------
 1\1\GINC-LC06-2-7\Freq\UB3LYP\Aug-CC-pVDZ\C6H4\UBUNTU\05-Nov-2016\0\\#
 P Geom=AllCheck Guess=TCheck SCRF=Check GenChk UB3LYP/Aug-CC-pVDZ Freq
 \\s-C6H4_UB3LYP-aug-cc-pVDZ\\0,1\C,-1.1783845804,-0.3837116895,-0.0583
 323771\C,-0.6703980675,0.7621649745,-0.0403275952\C,0.6799320765,1.079
 3290431,0.0058809626\C,1.4611945103,-0.1002531066,0.0316822726\C,0.889
 9693023,-1.3877149969,0.0116612633\C,-0.5084659864,-1.5988250762,-0.03
 60779283\H,1.1201499076,2.0746885313,0.0213638436\H,2.5482926492,-0.00
 4735349,0.0685871651\H,1.5484214006,-2.2584717508,0.0334601937\H,-0.95
 18012123,-2.5927905801,-0.0517878001\\Version=ES64L-G16RevA.03\State=1
 -A\HF=-230.9373574\S2=0.\S2-1=0.\S2A=0.\RMSD=4.432e-09\RMSF=4.671e-05\
 ZeroPoint=0.074713\Thermal=0.079229\Dipole=0.6135613,-0.2735009,0.0206
 229\DipoleDeriv=-0.5918173,-0.6770715,-0.019976,-0.0148289,-0.0124281,
 -0.000476,-0.0196553,-0.0230867,-0.0177197,0.0694282,0.5845189,0.00330
 02,-0.0774402,-0.6772299,-0.0030337,0.0029295,0.0195465,-0.0172088,0.2
 501687,-0.0084631,0.0127814,0.2655766,0.3889968,0.0093511,0.0129325,-0
 .000051,-0.1251707,-0.0059601,-0.0322237,0.004835,-0.0965044,-0.045922
 6,-0.0032439,0.0048191,-0.0010445,-0.1496319,0.0362224,-0.0583357,0.00
 62916,0.0060986,-0.0879832,0.0002533,0.0062918,-0.0018799,-0.149605,0.
 1976403,0.2189084,0.0111596,-0.0555355,0.4398789,-0.0015899,0.0110598,
 0.0078075,-0.1252423,0.0462649,-0.0438122,-0.0030487,-0.0789911,-0.036
 6234,-0.0027869,-0.003056,-0.0015456,0.1352157,-0.0767348,-0.0270351,-
 0.0079577,0.0274233,0.0863942,0.0008936,-0.0079193,-0.0009552,0.156938
 1,0.0128817,0.1085293,-0.0048418,0.0539284,-0.00318,0.0017436,-0.00484
 63,0.0035601,0.1570793,0.061906,-0.0650153,-0.0025437,-0.0297269,-0.05
 19026,-0.0011113,-0.0025559,-0.0023512,0.1353453\Polar=77.0721705,4.05
 75475,84.4704734,1.1857164,0.1615672,42.3511178\Quadrupole=-0.0543513,
 2.7835752,-2.7292239,1.5709937,0.0916891,0.056658\PG=C01 [X(C6H4)]\NIm
 ag=0\\0.27271549,0.17013924,0.99452229,0.00755181,0.00633087,0.0546766
 3,-0.10518993,-0.27310867,-0.00266267,0.49957438,-0.30906973,-0.632500
 68,-0.01089462,0.37539456,0.76693277,-0.00268008,-0.00967140,-0.032007
 82,0.01539146,0.01321583,0.05494368,-0.02879878,-0.07464516,-0.0007188
 8,-0.30298925,-0.07242577,-0.00920244,0.59339010,0.00728798,0.00631242
 ,0.00025382,-0.12654399,-0.08688665,-0.00433613,0.11482810,0.69494071,
 -0.00066996,-0.00253445,-0.00892795,-0.00923215,-0.00249246,-0.0346004
 5,0.01650220,0.00423631,0.11076462,-0.01463773,-0.00260941,-0.00034764
 ,-0.05561294,0.00683923,-0.00227971,-0.15005172,0.11500867,-0.00306718
 ,0.70576923,-0.01014115,-0.07887140,-0.00038459,0.07806569,0.04948849,
 0.00267609,0.04673564,-0.24716011,0.00147168,0.02001465,0.60810087,-0.
 00035657,-0.00012939,-0.00438096,-0.00224013,0.00025259,0.01139155,-0.
 00310568,0.00379187,-0.05769275,0.01939281,0.00093827,0.13497665,-0.04
 005500,0.09222078,-0.00170558,-0.04355030,-0.03636228,-0.00135513,0.04
 717419,-0.00847127,0.00136268,-0.14306510,-0.03968845,-0.00245705,0.63
 183839,0.02095502,0.03391128,0.00072607,-0.02883450,-0.04985552,-0.001
 00637,0.04539048,-0.04913228,0.00151611,-0.10088749,-0.27036568,-0.003
 52472,-0.04696660,0.68204372,-0.00174280,0.00315300,0.01141217,-0.0013
 4756,-0.00126078,-0.00441495,0.00139406,-0.00032406,0.00690796,-0.0024
 9255,-0.00144347,-0.07114140,0.01687262,-0.00128290,0.13487636,-0.0851
 3189,0.07047797,-0.00170362,0.02404595,0.05507549,0.00115177,-0.047615
 71,0.01177673,-0.00201689,-0.02413643,-0.07298311,-0.00109474,-0.28377
 870,-0.00592559,-0.00770194,0.53480378,0.12460478,-0.30530211,0.004115
 46,-0.02681742,-0.04651684,-0.00093285,0.02070740,-0.01829978,0.000686
 58,-0.01912139,0.02227758,-0.00064039,-0.07421879,-0.11327313,-0.00256
 216,0.06185959,0.75380408,-0.00167285,0.00226915,-0.03434485,0.0011067
 9,0.00185139,-0.00884957,-0.00201261,0.00038554,0.01177802,-0.00106708
 ,-0.00247473,0.00681461,-0.00774327,-0.00023692,-0.05783744,0.01451164
 ,0.00246073,0.11065590,-0.00094037,-0.00324150,-0.00030259,-0.01445667
 ,-0.02473848,-0.00043865,-0.09655813,-0.10579152,-0.00218640,0.0094022
 7,0.01635702,0.00023105,-0.00041285,0.00248901,-0.00031761,-0.00219211
 ,0.00114470,-0.00006695,0.10371189,-0.00145143,0.00215793,-0.00005274,
 0.00013178,0.00034443,0.00000598,-0.10444118,-0.29807733,-0.00369016,-
 0.01169150,-0.01496332,-0.00040558,0.00349361,-0.00105534,0.00011219,0
 .00058917,0.00039804,0.00002053,0.11394615,0.31111640,-0.00030359,-0.0
 0011169,0.00787915,-0.00042765,-0.00084461,-0.00196104,-0.00218143,-0.
 00373022,-0.03391937,0.00021500,0.00054539,0.00285541,-0.00031738,0.00
 007801,0.00897777,-0.00006553,0.00003970,-0.00021879,0.00282035,0.0040
 2566,0.02260978,-0.00075492,0.00051302,-0.00019563,-0.00165152,0.00103
 704,-0.00014365,-0.01208235,-0.00438906,-0.00055655,-0.33333321,-0.026
 58905,-0.01016880,-0.00689336,0.00331654,-0.00031168,0.00020215,-0.000
 45834,-0.00005119,0.00071389,0.00005859,0.00014792,0.35339951,0.004316
 86,-0.00096326,0.00014364,0.00305754,-0.00067968,0.00010225,0.02359622
 ,0.00303373,0.00080043,-0.02510522,-0.05576931,-0.00086357,-0.02700907
 ,0.00131056,-0.00091776,-0.00386251,-0.00560390,-0.00013493,-0.0005307
 4,0.00082557,-0.00001549,0.02664482,0.05732702,-0.00019547,0.00001423,
 0.00502140,-0.00014297,0.00003251,0.00260524,-0.00053966,-0.00014906,0
 .00420761,-0.01017001,-0.00091482,-0.03414501,-0.00032572,0.00011286,0
 .00231792,-0.00005356,-0.00001910,0.00170659,0.00014814,0.00000448,-0.
 00365031,0.01118050,0.00092159,0.02446334,-0.00315059,0.00169316,-0.00
 019499,-0.00325954,0.00204687,-0.00028079,-0.00083997,-0.00480379,-0.0
 0008874,0.00940075,-0.01226510,0.00023281,-0.15495596,0.13635663,-0.00
 402659,-0.01331124,0.02247743,-0.00058241,0.00045013,-0.00057347,0.000
 00984,0.00063001,0.00008120,0.00011220,0.16402735,-0.00031981,0.000816
 98,-0.00001187,-0.00175904,0.00155401,-0.00006233,-0.00140075,-0.00456
 305,-0.00005051,0.01806374,-0.01500793,0.00060236,0.13486017,-0.234372
 33,0.00445459,-0.00550681,0.00427510,-0.00018752,0.00069324,-0.0006796
 0,0.00002298,-0.00021125,0.00051659,-0.00000526,-0.14474611,0.24693064
 ,-0.00019614,0.00005355,0.00260246,-0.00028164,0.00006969,0.00501844,-
 0.00008770,-0.00016536,0.00170206,0.00024885,-0.00042620,0.00234275,-0
 .00402149,0.00450019,-0.03392722,-0.00060412,0.00076602,0.00420711,0.0
 0001057,-0.00001976,0.00014793,0.00011183,0.00000444,-0.00267445,0.004
 66055,-0.00477616,0.02423254,0.00594373,0.01856056,0.00027980,0.003089
 82,0.00220307,-0.00016277,-0.00162837,0.00109814,-0.00004703,-0.003735
 13,0.00049387,-0.00043372,-0.00630132,-0.02589349,-0.00032595,-0.10288
 581,-0.11017796,-0.00242207,0.00028195,-0.00006173,0.00010247,-0.00023
 021,-0.00118911,-0.00001344,0.00100904,0.00032663,0.00015929,0.1044562
 9,-0.00632176,-0.02008345,-0.00022604,0.00041405,-0.00188033,0.0000089
 2,0.00165502,-0.00016766,0.00005646,-0.00051129,0.00227082,-0.00002145
 ,0.00214189,0.00078873,0.00007134,-0.11150093,-0.29175904,-0.00395324,
 -0.00032788,-0.00006677,-0.00000972,0.00007769,0.00000268,0.00000258,-
 0.00026683,0.00052959,-0.00000641,0.11464002,0.31036544,0.00026565,0.0
 0062612,-0.00193023,-0.00016348,0.00007045,0.00787491,-0.00004787,0.00
 003729,-0.00021975,-0.00043249,0.00001237,0.00897914,-0.00030968,-0.00
 088232,0.00282881,-0.00242300,-0.00391399,-0.03391159,0.00010208,-0.00
 000059,-0.00272053,-0.00001275,-0.00004061,0.00014766,0.00015810,0.000
 01372,-0.00365163,0.00286343,0.00407755,0.02260322\\0.00000604,0.00000
 629,-0.00001208,-0.00007514,0.00001767,-0.00000721,0.00007621,0.000029
 95,0.00002478,-0.00004446,-0.00014021,-0.00002091,0.00005961,0.0000980
 4,0.00002588,0.00006373,-0.00007479,0.00001035,-0.00001672,0.00000669,
 -0.00000311,-0.00000109,0.00003200,-0.00000519,-0.00000450,-0.00000171
 ,-0.00000620,-0.00006369,0.00002607,-0.00000631\\\@


 If your ship doesn't come in, swim out to it!
                          -- Jonathan Winters
 Job cpu time:       0 days  0 hours 29 minutes 11.0 seconds.
 Elapsed time:       0 days  0 hours  4 minutes 10.3 seconds.
 File lengths (MBytes):  RWF=     59 Int=      0 D2E=      0 Chk=      5 Scr=      1
 Normal termination of Gaussian 16 at Sat Nov  5 23:12:12 2016.
