 Entering Gaussian System, Link 0=/home/ubuntu/g16/g16
 Input=s-Ph+_UB3LYP-aug-cc-pVDZ-Opt.gjf
 Output=s-Ph+_UB3LYP-aug-cc-pVDZ-Opt.log
 Initial command:
 /home/ubuntu/g16/l1.exe "/home/ubuntu/g16/Gau-5597.inp" -scrdir="/home/ubuntu/g16/"
 Entering Link 1 = /home/ubuntu/g16/l1.exe PID=      5599.
  
 Copyright (c) 1988,1990,1992,1993,1995,1998,2003,2009,2016,
            Gaussian, Inc.  All Rights Reserved.
  
 This is part of the Gaussian(R) 16 program.  It is based on
 the Gaussian(R) 09 system (copyright 2009, Gaussian, Inc.),
 the Gaussian(R) 03 system (copyright 2003, Gaussian, Inc.),
 the Gaussian(R) 98 system (copyright 1998, Gaussian, Inc.),
 the Gaussian(R) 94 system (copyright 1995, Gaussian, Inc.),
 the Gaussian 92(TM) system (copyright 1992, Gaussian, Inc.),
 the Gaussian 90(TM) system (copyright 1990, Gaussian, Inc.),
 the Gaussian 88(TM) system (copyright 1988, Gaussian, Inc.),
 the Gaussian 86(TM) system (copyright 1986, Carnegie Mellon
 University), and the Gaussian 82(TM) system (copyright 1983,
 Carnegie Mellon University). Gaussian is a federally registered
 trademark of Gaussian, Inc.
  
 This software contains proprietary and confidential information,
 including trade secrets, belonging to Gaussian, Inc.
  
 This software is provided under written license and may be
 used, copied, transmitted, or stored only in accord with that
 written license.
  
 The following legend is applicable only to US Government
 contracts under FAR:
  
                    RESTRICTED RIGHTS LEGEND
  
 Use, reproduction and disclosure by the US Government is
 subject to restrictions as set forth in subparagraphs (a)
 and (c) of the Commercial Computer Software - Restricted
 Rights clause in FAR 52.227-19.
  
 Gaussian, Inc.
 340 Quinnipiac St., Bldg. 40, Wallingford CT 06492
  
  
 ---------------------------------------------------------------
 Warning -- This program may not be used in any manner that
 competes with the business of Gaussian, Inc. or will provide
 assistance to any competitor of Gaussian, Inc.  The licensee
 of this program is prohibited from giving any competitor of
 Gaussian, Inc. access to this program.  By using this program,
 the user acknowledges that Gaussian, Inc. is engaged in the
 business of creating and licensing software in the field of
 computational chemistry and represents and warrants to the
 licensee that it is not a competitor of Gaussian, Inc. and that
 it will not use this program in any manner prohibited above.
 ---------------------------------------------------------------
  

 Cite this work as:
 Gaussian 16, Revision A.03,
 M. J. Frisch, G. W. Trucks, H. B. Schlegel, G. E. Scuseria, 
 M. A. Robb, J. R. Cheeseman, G. Scalmani, V. Barone, 
 G. A. Petersson, H. Nakatsuji, X. Li, M. Caricato, A. V. Marenich, 
 J. Bloino, B. G. Janesko, R. Gomperts, B. Mennucci, H. P. Hratchian, 
 J. V. Ortiz, A. F. Izmaylov, J. L. Sonnenberg, D. Williams-Young, 
 F. Ding, F. Lipparini, F. Egidi, J. Goings, B. Peng, A. Petrone, 
 T. Henderson, D. Ranasinghe, V. G. Zakrzewski, J. Gao, N. Rega, 
 G. Zheng, W. Liang, M. Hada, M. Ehara, K. Toyota, R. Fukuda, 
 J. Hasegawa, M. Ishida, T. Nakajima, Y. Honda, O. Kitao, H. Nakai, 
 T. Vreven, K. Throssell, J. A. Montgomery, Jr., J. E. Peralta, 
 F. Ogliaro, M. J. Bearpark, J. J. Heyd, E. N. Brothers, K. N. Kudin, 
 V. N. Staroverov, T. A. Keith, R. Kobayashi, J. Normand, 
 K. Raghavachari, A. P. Rendell, J. C. Burant, S. S. Iyengar, 
 J. Tomasi, M. Cossi, J. M. Millam, M. Klene, C. Adamo, R. Cammi, 
 J. W. Ochterski, R. L. Martin, K. Morokuma, O. Farkas, 
 J. B. Foresman, and D. J. Fox, Gaussian, Inc., Wallingford CT, 2016.
 
 ******************************************
 Gaussian 16:  ES64L-G16RevA.03 25-Dec-2016
                 5-Nov-2016 
 ******************************************
 %chk=s-Ph+_UB3LYP-aug-cc-pVDZ-Opt.chk
 %mem=500MW
 %nproc=7
 Will use up to    7 processors via shared memory.
 ----------------------------------------------------------------------
 #p opt=(maxcycles=777) freq ub3lyp/aug-cc-pVDZ pop=(Bonding,AllOrbital
 s,mk,no,nboread)
 ----------------------------------------------------------------------
 1/6=777,18=20,19=15,26=3,38=1/1,3;
 2/9=110,12=2,17=6,18=5,40=1/2;
 3/5=16,7=10,11=2,25=1,30=1,71=1,74=-5,116=2/1,2,3;
 4//1;
 5/5=2,38=5/2;
 6/7=2,8=2,9=2,10=2,15=8,20=1,22=-1,27=20,28=1,31=1,40=2,96=-1/1,2,7;
 7//1,2,3,16;
 1/6=777,18=20,19=15,26=3/3(2);
 2/9=110/2;
 99//99;
 2/9=110/2;
 3/5=16,7=10,11=2,25=1,30=1,71=1,74=-5,116=2/1,2,3;
 4/5=5,16=3,69=1/1;
 5/5=2,38=5/2;
 7//1,2,3,16;
 1/6=777,18=20,19=15,26=3/3(-5);
 2/9=110/2;
 6/7=2,8=2,9=2,10=2,15=8,19=2,20=1,22=-1,27=20,28=1,31=1,40=2,96=-1/1,2,7;
 99/9=1/99;
 Leave Link    1 at Sat Nov  5 23:12:12 2016, MaxMem=   524288000 cpu:               0.3 elap:               0.0
 (Enter /home/ubuntu/g16/l101.exe)
 ------------------------
 s-Ph+_UB3LYP-aug-cc-pVDZ
 ------------------------
 Symbolic Z-matrix:
 Charge =  1 Multiplicity = 1
 C                    -1.5049   -1.48913  -1.32947 
 C                    -0.06839  -1.43298  -1.30617 
 C                     0.19772  -0.23828  -0.78928 
 C                    -0.27993   0.89976  -0.29687 
 C                    -1.70678   0.73585  -0.36555 
 C                    -2.28861  -0.42899  -0.86981 
 H                    -1.9335   -2.41091  -1.72972 
 H                     0.58606  -2.23029  -1.65236 
 H                     0.22229   1.78518   0.08681 
 H                    -2.29541   1.5798    0.00219 
 H                    -3.37476  -0.51172  -0.90537 
 
 ITRead=  0  0  0  0  0  0  0  0  0  0  0
 MicOpt= -1 -1 -1 -1 -1 -1 -1 -1 -1 -1 -1
 NAtoms=     11 NQM=       11 NQMF=       0 NMMI=      0 NMMIF=      0
                NMic=       0 NMicF=      0.
                    Isotopes and Nuclear Properties:
 (Nuclear quadrupole moments (NQMom) in fm**2, nuclear magnetic moments (NMagM)
  in nuclear magnetons)

  Atom         1           2           3           4           5           6           7           8           9          10
 IAtWgt=          12          12          12          12          12          12           1           1           1           1
 AtmWgt=  12.0000000  12.0000000  12.0000000  12.0000000  12.0000000  12.0000000   1.0078250   1.0078250   1.0078250   1.0078250
 NucSpn=           0           0           0           0           0           0           1           1           1           1
 AtZEff=  -0.0000000  -0.0000000  -0.0000000  -0.0000000  -0.0000000  -0.0000000  -0.0000000  -0.0000000  -0.0000000  -0.0000000
 NQMom=    0.0000000   0.0000000   0.0000000   0.0000000   0.0000000   0.0000000   0.0000000   0.0000000   0.0000000   0.0000000
 NMagM=    0.0000000   0.0000000   0.0000000   0.0000000   0.0000000   0.0000000   2.7928460   2.7928460   2.7928460   2.7928460
 AtZNuc=   6.0000000   6.0000000   6.0000000   6.0000000   6.0000000   6.0000000   1.0000000   1.0000000   1.0000000   1.0000000

  Atom        11
 IAtWgt=           1
 AtmWgt=   1.0078250
 NucSpn=           1
 AtZEff=  -0.0000000
 NQMom=    0.0000000
 NMagM=    2.7928460
 AtZNuc=   1.0000000
 Leave Link  101 at Sat Nov  5 23:12:12 2016, MaxMem=   524288000 cpu:               1.2 elap:               0.2
 (Enter /home/ubuntu/g16/l103.exe)

 GradGradGradGradGradGradGradGradGradGradGradGradGradGradGradGradGradGrad
 Berny optimization.
 Initialization pass.
                           ----------------------------
                           !    Initial Parameters    !
                           ! (Angstroms and Degrees)  !
 --------------------------                            --------------------------
 ! Name  Definition              Value          Derivative Info.                !
 --------------------------------------------------------------------------------
 ! R1    R(1,2)                  1.4378         estimate D2E/DX2                !
 ! R2    R(1,6)                  1.3962         estimate D2E/DX2                !
 ! R3    R(1,7)                  1.0925         estimate D2E/DX2                !
 ! R4    R(2,3)                  1.3286         estimate D2E/DX2                !
 ! R5    R(2,8)                  1.0881         estimate D2E/DX2                !
 ! R6    R(3,4)                  1.3288         estimate D2E/DX2                !
 ! R7    R(4,5)                  1.4379         estimate D2E/DX2                !
 ! R8    R(4,9)                  1.0878         estimate D2E/DX2                !
 ! R9    R(5,6)                  1.3963         estimate D2E/DX2                !
 ! R10   R(5,10)                 1.0927         estimate D2E/DX2                !
 ! R11   R(6,11)                 1.0899         estimate D2E/DX2                !
 ! A1    A(2,1,6)              121.7238         estimate D2E/DX2                !
 ! A2    A(2,1,7)              115.5211         estimate D2E/DX2                !
 ! A3    A(6,1,7)              122.755          estimate D2E/DX2                !
 ! A4    A(1,2,3)              103.9767         estimate D2E/DX2                !
 ! A5    A(1,2,8)              124.5536         estimate D2E/DX2                !
 ! A6    A(3,2,8)              131.4697         estimate D2E/DX2                !
 ! A7    A(2,3,4)              147.3795         estimate D2E/DX2                !
 ! A8    A(3,4,5)              103.9675         estimate D2E/DX2                !
 ! A9    A(3,4,9)              131.4386         estimate D2E/DX2                !
 ! A10   A(5,4,9)              124.5938         estimate D2E/DX2                !
 ! A11   A(4,5,6)              121.7253         estimate D2E/DX2                !
 ! A12   A(4,5,10)             115.496          estimate D2E/DX2                !
 ! A13   A(6,5,10)             122.7787         estimate D2E/DX2                !
 ! A14   A(1,6,5)              121.2272         estimate D2E/DX2                !
 ! A15   A(1,6,11)             119.4075         estimate D2E/DX2                !
 ! A16   A(5,6,11)             119.3654         estimate D2E/DX2                !
 ! D1    D(6,1,2,3)             -0.0122         estimate D2E/DX2                !
 ! D2    D(6,1,2,8)           -179.974          estimate D2E/DX2                !
 ! D3    D(7,1,2,3)            179.9149         estimate D2E/DX2                !
 ! D4    D(7,1,2,8)             -0.0469         estimate D2E/DX2                !
 ! D5    D(2,1,6,5)             -0.0099         estimate D2E/DX2                !
 ! D6    D(2,1,6,11)           179.9722         estimate D2E/DX2                !
 ! D7    D(7,1,6,5)           -179.9317         estimate D2E/DX2                !
 ! D8    D(7,1,6,11)             0.0504         estimate D2E/DX2                !
 ! D9    D(1,2,3,4)             -0.0349         estimate D2E/DX2                !
 ! D10   D(8,2,3,4)            179.9231         estimate D2E/DX2                !
 ! D11   D(2,3,4,5)              0.0818         estimate D2E/DX2                !
 ! D12   D(2,3,4,9)            179.9603         estimate D2E/DX2                !
 ! D13   D(3,4,5,6)             -0.0823         estimate D2E/DX2                !
 ! D14   D(3,4,5,10)           179.8813         estimate D2E/DX2                !
 ! D15   D(9,4,5,6)           -179.9717         estimate D2E/DX2                !
 ! D16   D(9,4,5,10)            -0.0081         estimate D2E/DX2                !
 ! D17   D(4,5,6,1)              0.066          estimate D2E/DX2                !
 ! D18   D(4,5,6,11)          -179.9162         estimate D2E/DX2                !
 ! D19   D(10,5,6,1)          -179.8949         estimate D2E/DX2                !
 ! D20   D(10,5,6,11)            0.1229         estimate D2E/DX2                !
 --------------------------------------------------------------------------------
 Trust Radius=3.00D-01 FncErr=1.00D-07 GrdErr=1.00D-06 EigMax=2.50D+02 EigMin=1.00D-04
 Number of steps in this run=    100 maximum allowed number of steps=    100.
 GradGradGradGradGradGradGradGradGradGradGradGradGradGradGradGradGradGrad

 Leave Link  103 at Sat Nov  5 23:12:12 2016, MaxMem=   524288000 cpu:               0.0 elap:               0.0
 (Enter /home/ubuntu/g16/l202.exe)
                          Input orientation:                          
 ---------------------------------------------------------------------
 Center     Atomic      Atomic             Coordinates (Angstroms)
 Number     Number       Type             X           Y           Z
 ---------------------------------------------------------------------
      1          6           0       -1.504900   -1.489130   -1.329470
      2          6           0       -0.068390   -1.432980   -1.306170
      3          6           0        0.197720   -0.238280   -0.789280
      4          6           0       -0.279930    0.899760   -0.296870
      5          6           0       -1.706780    0.735850   -0.365550
      6          6           0       -2.288610   -0.428990   -0.869810
      7          1           0       -1.933500   -2.410910   -1.729720
      8          1           0        0.586060   -2.230290   -1.652360
      9          1           0        0.222290    1.785180    0.086810
     10          1           0       -2.295410    1.579800    0.002190
     11          1           0       -3.374760   -0.511720   -0.905370
 ---------------------------------------------------------------------
                    Distance matrix (angstroms):
                    1          2          3          4          5
     1  C    0.000000
     2  C    1.437796   0.000000
     3  C    2.180676   1.328645   0.000000
     4  C    2.876388   2.550512   1.328816   0.000000
     5  C    2.433194   2.876267   2.180733   1.437875   0.000000
     6  C    1.396204   2.475436   2.494933   2.475607   1.396301
     7  H    1.092509   2.148110   3.185412   3.968361   3.437217
     8  H    2.241805   1.088051   2.205407   3.519163   3.963708
     9  H    3.963602   3.518727   2.205114   1.087844   2.242105
    10  H    3.437522   3.968409   3.185520   2.148034   1.092689
    11  H    2.152108   3.455639   3.584810   3.455506   2.151742
                    6          7          8          9         10
     6  C    0.000000
     7  H    2.189419   0.000000
     8  H    3.481493   2.527210   0.000000
     9  H    3.481708   5.055134   4.391018   0.000000
    10  H    2.189901   4.365347   5.055412   2.527480   0.000000
    11  H    1.089876   2.522639   4.381732   4.381659   2.522522
                   11
    11  H    0.000000
 Stoichiometry    C6H5(1+)
 Framework group  C1[X(C6H5)]
 Deg. of freedom    27
 Full point group                 C1      NOp   1
 Largest Abelian subgroup         C1      NOp   1
 Largest concise Abelian subgroup C1      NOp   1
                         Standard orientation:                         
 ---------------------------------------------------------------------
 Center     Atomic      Atomic             Coordinates (Angstroms)
 Number     Number       Type             X           Y           Z
 ---------------------------------------------------------------------
      1          6           0        1.216655    0.615156   -0.000069
      2          6           0        1.275139   -0.821450   -0.000346
      3          6           0       -0.000050   -1.194533   -0.000124
      4          6           0       -1.275373   -0.821301    0.000671
      5          6           0       -1.216539    0.615370   -0.000240
      6          6           0        0.000174    1.300400    0.000080
      7          1           0        2.182601    1.125570    0.001269
      8          1           0        2.195614   -1.401606   -0.000064
      9          1           0       -2.195404   -1.401771    0.000028
     10          1           0       -2.182745    1.125676   -0.001818
     11          1           0       -0.000109    2.390276    0.000750
 ---------------------------------------------------------------------
 Rotational constants (GHZ):           6.7454563           5.3837083           2.9940705
 Leave Link  202 at Sat Nov  5 23:12:12 2016, MaxMem=   524288000 cpu:               0.0 elap:               0.0
 (Enter /home/ubuntu/g16/l301.exe)
 Standard basis: Aug-CC-pVDZ (5D, 7F)
 Ernie: Thresh=  0.10000D-02 Tol=  0.10000D-05 Strict=F.
 Ernie:  12 primitive shells out of 185 were deleted.
 There are   195 symmetry adapted cartesian basis functions of A   symmetry.
 There are   183 symmetry adapted basis functions of A   symmetry.
   183 basis functions,   313 primitive gaussians,   195 cartesian basis functions
    20 alpha electrons       20 beta electrons
       nuclear repulsion energy       195.5113912504 Hartrees.
 IExCor=  402 DFT=T Ex+Corr=B3LYP ExCW=0 ScaHFX=  0.200000
 ScaDFX=  0.800000  0.720000  1.000000  0.810000 ScalE2=  1.000000  1.000000
 IRadAn=      5 IRanWt=     -1 IRanGd=            0 ICorTp=0 IEmpDi=  4
 NAtoms=   11 NActive=   11 NUniq=   11 SFac= 1.00D+00 NAtFMM=   60 NAOKFM=F Big=F
 Integral buffers will be    131072 words long.
 Raffenetti 2 integral format.
 Two-electron integral symmetry is turned on.
 Leave Link  301 at Sat Nov  5 23:12:12 2016, MaxMem=   524288000 cpu:               0.2 elap:               0.0
 (Enter /home/ubuntu/g16/l302.exe)
 NPDir=0 NMtPBC=     1 NCelOv=     1 NCel=       1 NClECP=     1 NCelD=      1
         NCelK=      1 NCelE2=     1 NClLst=     1 CellRange=     0.0.
 One-electron integrals computed using PRISM.
 One-electron integral symmetry used in STVInt
 NBasis=   183 RedAO= T EigKep=  4.81D-06  NBF=   183
 NBsUse=   183 1.00D-06 EigRej= -1.00D+00 NBFU=   183
 Precomputing XC quadrature grid using
 IXCGrd= 4 IRadAn=           5 IRanWt=          -1 IRanGd=           0 AccXCQ= 0.00D+00.
 Generated NRdTot=       0 NPtTot=           0 NUsed=           0 NTot=          32
 NSgBfM=   195   195   195   195   195 MxSgAt=    11 MxSgA2=    11.
 Leave Link  302 at Sat Nov  5 23:12:12 2016, MaxMem=   524288000 cpu:               1.7 elap:               0.2
 (Enter /home/ubuntu/g16/l303.exe)
 DipDrv:  MaxL=1.
 Leave Link  303 at Sat Nov  5 23:12:12 2016, MaxMem=   524288000 cpu:               0.2 elap:               0.0
 (Enter /home/ubuntu/g16/l401.exe)
 ExpMin= 2.97D-02 ExpMax= 6.67D+03 ExpMxC= 2.28D+02 IAcc=3 IRadAn=         5 AccDes= 0.00D+00
 Harris functional with IExCor=  402 and IRadAn=       5 diagonalized for initial guess.
 HarFok:  IExCor=  402 AccDes= 0.00D+00 IRadAn=         5 IDoV= 1 UseB2=F ITyADJ=14
 ICtDFT=  3500011 ScaDFX=  1.000000  1.000000  1.000000  1.000000
 FoFCou: FMM=F IPFlag=           0 FMFlag=      100000 FMFlg1=           0
         NFxFlg=           0 DoJE=T BraDBF=F KetDBF=T FulRan=T
         wScrn=  0.000000 ICntrl=       500 IOpCl=  0 I1Cent=   200000004 NGrid=           0
         NMat0=    1 NMatS0=      1 NMatT0=    0 NMatD0=    1 NMtDS0=    0 NMtDT0=    0
 Petite list used in FoFCou.
 Harris En= -231.314368434314    
 JPrj=0 DoOrth=F DoCkMO=F.
 Initial guess <Sx>= 0.0000 <Sy>= 0.0000 <Sz>= 0.0000 <S**2>=-0.0000 S=-0.0000
 Leave Link  401 at Sat Nov  5 23:12:14 2016, MaxMem=   524288000 cpu:               9.4 elap:               1.3
 (Enter /home/ubuntu/g16/l502.exe)
 Keep R1 and R2 ints in memory in canonical form, NReq=290615902.
 FoFCou: FMM=F IPFlag=           0 FMFlag=           0 FMFlg1=           0
         NFxFlg=           0 DoJE=F BraDBF=F KetDBF=F FulRan=T
         wScrn=  0.000000 ICntrl=       600 IOpCl=  0 I1Cent=           0 NGrid=           0
         NMat0=    1 NMatS0=  16836 NMatT0=    0 NMatD0=    1 NMtDS0=    0 NMtDT0=    0
 Symmetry not used in FoFCou.
 Two-electron integral symmetry not used.
 UHF open shell SCF:
 Using DIIS extrapolation, IDIIS=  1040.
 NGot=   524288000 LenX=   240740930 LenY=   240702464
 Requested convergence on RMS density matrix=1.00D-08 within 128 cycles.
 Requested convergence on MAX density matrix=1.00D-06.
 Requested convergence on             energy=1.00D-06.
 No special actions if energy rises.

 Cycle   1  Pass 1  IDiag  1:
 E= -231.183411708962    
 DIIS: error= 2.28D-02 at cycle   1 NSaved=   1.
 NSaved= 1 IEnMin= 1 EnMin= -231.183411708962     IErMin= 1 ErrMin= 2.28D-02
 ErrMax= 2.28D-02  0.00D+00 EMaxC= 1.00D-01 BMatC= 3.50D-01 BMatP= 3.50D-01
 IDIUse=3 WtCom= 7.72D-01 WtEn= 2.28D-01
 Coeff-Com:  0.100D+01
 Coeff-En:   0.100D+01
 Coeff:      0.100D+01
 Gap=     0.029 Goal=   None    Shift=    0.000
 Gap=     0.029 Goal=   None    Shift=    0.000
 GapD=    0.029 DampG=0.250 DampE=0.500 DampFc=0.2500 IDamp=-1.
 Damping current iteration by 2.50D-01
 RMSDP=3.92D-02 MaxDP=8.80D-01              OVMax= 2.43D-01

 Cycle   2  Pass 1  IDiag  1:
 E= -231.216173264267     Delta-E=       -0.032761555304 Rises=F Damp=T
 DIIS: error= 1.25D-02 at cycle   2 NSaved=   2.
 NSaved= 2 IEnMin= 2 EnMin= -231.216173264267     IErMin= 2 ErrMin= 1.25D-02
 ErrMax= 1.25D-02  0.00D+00 EMaxC= 1.00D-01 BMatC= 7.02D-02 BMatP= 3.50D-01
 IDIUse=3 WtCom= 8.75D-01 WtEn= 1.25D-01
 Coeff-Com: -0.472D+00 0.147D+01
 Coeff-En:   0.000D+00 0.100D+01
 Coeff:     -0.413D+00 0.141D+01
 Gap=     0.148 Goal=   None    Shift=    0.000
 Gap=     0.148 Goal=   None    Shift=    0.000
 RMSDP=2.41D-02 MaxDP=5.22D-01 DE=-3.28D-02 OVMax= 2.43D-01

 Cycle   3  Pass 1  IDiag  1:
 E= -231.270309163775     Delta-E=       -0.054135899508 Rises=F Damp=F
 DIIS: error= 1.01D-02 at cycle   3 NSaved=   3.
 NSaved= 3 IEnMin= 3 EnMin= -231.270309163775     IErMin= 3 ErrMin= 1.01D-02
 ErrMax= 1.01D-02  0.00D+00 EMaxC= 1.00D-01 BMatC= 3.87D-02 BMatP= 7.02D-02
 IDIUse=3 WtCom= 8.99D-01 WtEn= 1.01D-01
 Coeff-Com: -0.337D+00 0.812D+00 0.525D+00
 Coeff-En:   0.000D+00 0.000D+00 0.100D+01
 Coeff:     -0.303D+00 0.730D+00 0.573D+00
 Gap=     0.133 Goal=   None    Shift=    0.000
 Gap=     0.133 Goal=   None    Shift=    0.000
 RMSDP=2.54D-03 MaxDP=9.50D-02 DE=-5.41D-02 OVMax= 6.52D-02

 Cycle   4  Pass 1  IDiag  1:
 E= -231.280752863527     Delta-E=       -0.010443699752 Rises=F Damp=F
 DIIS: error= 3.68D-03 at cycle   4 NSaved=   4.
 NSaved= 4 IEnMin= 4 EnMin= -231.280752863527     IErMin= 4 ErrMin= 3.68D-03
 ErrMax= 3.68D-03  0.00D+00 EMaxC= 1.00D-01 BMatC= 4.98D-03 BMatP= 3.87D-02
 IDIUse=3 WtCom= 9.63D-01 WtEn= 3.68D-02
 Coeff-Com: -0.931D-01 0.195D+00 0.298D+00 0.601D+00
 Coeff-En:   0.000D+00 0.000D+00 0.100D+00 0.900D+00
 Coeff:     -0.896D-01 0.187D+00 0.290D+00 0.612D+00
 Gap=     0.136 Goal=   None    Shift=    0.000
 Gap=     0.136 Goal=   None    Shift=    0.000
 RMSDP=8.51D-04 MaxDP=2.24D-02 DE=-1.04D-02 OVMax= 2.35D-02

 Cycle   5  Pass 1  IDiag  1:
 E= -231.282129319027     Delta-E=       -0.001376455500 Rises=F Damp=F
 DIIS: error= 9.00D-04 at cycle   5 NSaved=   5.
 NSaved= 5 IEnMin= 5 EnMin= -231.282129319027     IErMin= 5 ErrMin= 9.00D-04
 ErrMax= 9.00D-04  0.00D+00 EMaxC= 1.00D-01 BMatC= 3.12D-04 BMatP= 4.98D-03
 IDIUse=3 WtCom= 9.91D-01 WtEn= 9.00D-03
 Coeff-Com: -0.268D-01 0.437D-01 0.946D-01 0.297D+00 0.591D+00
 Coeff-En:   0.000D+00 0.000D+00 0.000D+00 0.000D+00 0.100D+01
 Coeff:     -0.265D-01 0.433D-01 0.938D-01 0.294D+00 0.595D+00
 Gap=     0.136 Goal=   None    Shift=    0.000
 Gap=     0.136 Goal=   None    Shift=    0.000
 RMSDP=2.54D-04 MaxDP=8.67D-03 DE=-1.38D-03 OVMax= 5.58D-03

 Cycle   6  Pass 1  IDiag  1:
 E= -231.282207032241     Delta-E=       -0.000077713215 Rises=F Damp=F
 DIIS: error= 2.43D-04 at cycle   6 NSaved=   6.
 NSaved= 6 IEnMin= 6 EnMin= -231.282207032241     IErMin= 6 ErrMin= 2.43D-04
 ErrMax= 2.43D-04  0.00D+00 EMaxC= 1.00D-01 BMatC= 3.59D-05 BMatP= 3.12D-04
 IDIUse=3 WtCom= 9.98D-01 WtEn= 2.43D-03
 Coeff-Com: -0.597D-02 0.458D-02 0.165D-01 0.965D-01 0.328D+00 0.560D+00
 Coeff-En:   0.000D+00 0.000D+00 0.000D+00 0.000D+00 0.000D+00 0.100D+01
 Coeff:     -0.596D-02 0.457D-02 0.165D-01 0.963D-01 0.327D+00 0.561D+00
 Gap=     0.136 Goal=   None    Shift=    0.000
 Gap=     0.136 Goal=   None    Shift=    0.000
 RMSDP=4.38D-05 MaxDP=9.27D-04 DE=-7.77D-05 OVMax= 8.48D-04

 Cycle   7  Pass 1  IDiag  1:
 E= -231.282216031099     Delta-E=       -0.000008998857 Rises=F Damp=F
 DIIS: error= 4.69D-05 at cycle   7 NSaved=   7.
 NSaved= 7 IEnMin= 7 EnMin= -231.282216031099     IErMin= 7 ErrMin= 4.69D-05
 ErrMax= 4.69D-05  0.00D+00 EMaxC= 1.00D-01 BMatC= 6.71D-07 BMatP= 3.59D-05
 IDIUse=1 WtCom= 1.00D+00 WtEn= 0.00D+00
 Coeff-Com: -0.142D-02 0.732D-03 0.389D-03 0.178D-01 0.701D-01 0.125D+00
 Coeff-Com:  0.787D+00
 Coeff:     -0.142D-02 0.732D-03 0.389D-03 0.178D-01 0.701D-01 0.125D+00
 Coeff:      0.787D+00
 Gap=     0.136 Goal=   None    Shift=    0.000
 Gap=     0.136 Goal=   None    Shift=    0.000
 RMSDP=9.28D-06 MaxDP=4.44D-04 DE=-9.00D-06 OVMax= 3.42D-04

 Cycle   8  Pass 1  IDiag  1:
 E= -231.282216194836     Delta-E=       -0.000000163737 Rises=F Damp=F
 DIIS: error= 2.36D-05 at cycle   8 NSaved=   8.
 NSaved= 8 IEnMin= 8 EnMin= -231.282216194836     IErMin= 8 ErrMin= 2.36D-05
 ErrMax= 2.36D-05  0.00D+00 EMaxC= 1.00D-01 BMatC= 2.90D-07 BMatP= 6.71D-07
 IDIUse=1 WtCom= 1.00D+00 WtEn= 0.00D+00
 Coeff-Com: -0.127D-03-0.140D-03-0.219D-02-0.170D-02-0.421D-03-0.165D-02
 Coeff-Com:  0.485D+00 0.521D+00
 Coeff:     -0.127D-03-0.140D-03-0.219D-02-0.170D-02-0.421D-03-0.165D-02
 Coeff:      0.485D+00 0.521D+00
 Gap=     0.136 Goal=   None    Shift=    0.000
 Gap=     0.136 Goal=   None    Shift=    0.000
 RMSDP=4.44D-06 MaxDP=1.89D-04 DE=-1.64D-07 OVMax= 9.22D-05

 Cycle   9  Pass 1  IDiag  1:
 E= -231.282216267228     Delta-E=       -0.000000072392 Rises=F Damp=F
 DIIS: error= 2.08D-06 at cycle   9 NSaved=   9.
 NSaved= 9 IEnMin= 9 EnMin= -231.282216267228     IErMin= 9 ErrMin= 2.08D-06
 ErrMax= 2.08D-06  0.00D+00 EMaxC= 1.00D-01 BMatC= 1.78D-09 BMatP= 2.90D-07
 IDIUse=1 WtCom= 1.00D+00 WtEn= 0.00D+00
 Coeff-Com:  0.437D-04-0.449D-05-0.283D-03-0.132D-02-0.584D-02-0.100D-01
 Coeff-Com:  0.887D-02 0.588D-01 0.950D+00
 Coeff:      0.437D-04-0.449D-05-0.283D-03-0.132D-02-0.584D-02-0.100D-01
 Coeff:      0.887D-02 0.588D-01 0.950D+00
 Gap=     0.136 Goal=   None    Shift=    0.000
 Gap=     0.136 Goal=   None    Shift=    0.000
 RMSDP=1.00D-06 MaxDP=3.47D-05 DE=-7.24D-08 OVMax= 2.34D-05

 Cycle  10  Pass 1  IDiag  1:
 E= -231.282216268137     Delta-E=       -0.000000000909 Rises=F Damp=F
 DIIS: error= 3.01D-07 at cycle  10 NSaved=  10.
 NSaved=10 IEnMin=10 EnMin= -231.282216268137     IErMin=10 ErrMin= 3.01D-07
 ErrMax= 3.01D-07  0.00D+00 EMaxC= 1.00D-01 BMatC= 9.21D-11 BMatP= 1.78D-09
 IDIUse=1 WtCom= 1.00D+00 WtEn= 0.00D+00
 Coeff-Com:  0.113D-04 0.221D-05-0.346D-04-0.297D-03-0.150D-02-0.223D-02
 Coeff-Com: -0.631D-02-0.214D-03 0.240D+00 0.771D+00
 Coeff:      0.113D-04 0.221D-05-0.346D-04-0.297D-03-0.150D-02-0.223D-02
 Coeff:     -0.631D-02-0.214D-03 0.240D+00 0.771D+00
 Gap=     0.136 Goal=   None    Shift=    0.000
 Gap=     0.136 Goal=   None    Shift=    0.000
 RMSDP=1.48D-07 MaxDP=4.71D-06 DE=-9.09D-10 OVMax= 3.68D-06

 Cycle  11  Pass 1  IDiag  1:
 E= -231.282216268136     Delta-E=        0.000000000001 Rises=F Damp=F
 DIIS: error= 4.61D-07 at cycle  11 NSaved=  11.
 NSaved=11 IEnMin=10 EnMin= -231.282216268137     IErMin=10 ErrMin= 3.01D-07
 ErrMax= 4.61D-07  0.00D+00 EMaxC= 1.00D-01 BMatC= 8.73D-11 BMatP= 9.21D-11
 IDIUse=1 WtCom= 1.00D+00 WtEn= 0.00D+00
 Coeff-Com:  0.400D-05 0.153D-05 0.539D-05-0.759D-04-0.482D-03-0.543D-03
 Coeff-Com: -0.558D-02-0.685D-02 0.765D-01 0.554D+00 0.383D+00
 Coeff:      0.400D-05 0.153D-05 0.539D-05-0.759D-04-0.482D-03-0.543D-03
 Coeff:     -0.558D-02-0.685D-02 0.765D-01 0.554D+00 0.383D+00
 Gap=     0.136 Goal=   None    Shift=    0.000
 Gap=     0.136 Goal=   None    Shift=    0.000
 RMSDP=6.09D-08 MaxDP=2.14D-06 DE= 6.25D-13 OVMax= 2.28D-06

 Cycle  12  Pass 1  IDiag  1:
 E= -231.282216268168     Delta-E=       -0.000000000031 Rises=F Damp=F
 DIIS: error= 5.10D-08 at cycle  12 NSaved=  12.
 NSaved=12 IEnMin=12 EnMin= -231.282216268168     IErMin=12 ErrMin= 5.10D-08
 ErrMax= 5.10D-08  0.00D+00 EMaxC= 1.00D-01 BMatC= 1.66D-12 BMatP= 8.73D-11
 IDIUse=1 WtCom= 1.00D+00 WtEn= 0.00D+00
 Coeff-Com:  0.497D-06-0.909D-06 0.772D-05 0.204D-04 0.536D-04 0.166D-03
 Coeff-Com: -0.877D-03-0.230D-02-0.674D-02 0.694D-01 0.135D+00 0.805D+00
 Coeff:      0.497D-06-0.909D-06 0.772D-05 0.204D-04 0.536D-04 0.166D-03
 Coeff:     -0.877D-03-0.230D-02-0.674D-02 0.694D-01 0.135D+00 0.805D+00
 Gap=     0.136 Goal=   None    Shift=    0.000
 Gap=     0.136 Goal=   None    Shift=    0.000
 RMSDP=1.65D-08 MaxDP=3.74D-07 DE=-3.13D-11 OVMax= 2.95D-07

 Cycle  13  Pass 1  IDiag  1:
 E= -231.282216268158     Delta-E=        0.000000000010 Rises=F Damp=F
 DIIS: error= 5.53D-09 at cycle  13 NSaved=  13.
 NSaved=13 IEnMin=12 EnMin= -231.282216268168     IErMin=13 ErrMin= 5.53D-09
 ErrMax= 5.53D-09  0.00D+00 EMaxC= 1.00D-01 BMatC= 3.46D-14 BMatP= 1.66D-12
 IDIUse=1 WtCom= 1.00D+00 WtEn= 0.00D+00
 Coeff-Com:  0.328D-06-0.668D-06 0.104D-05 0.556D-05 0.168D-04 0.454D-04
 Coeff-Com: -0.242D-04-0.175D-03-0.296D-02-0.391D-02 0.131D-01 0.147D+00
 Coeff-Com:  0.847D+00
 Coeff:      0.328D-06-0.668D-06 0.104D-05 0.556D-05 0.168D-04 0.454D-04
 Coeff:     -0.242D-04-0.175D-03-0.296D-02-0.391D-02 0.131D-01 0.147D+00
 Coeff:      0.847D+00
 Gap=     0.136 Goal=   None    Shift=    0.000
 Gap=     0.136 Goal=   None    Shift=    0.000
 RMSDP=3.12D-09 MaxDP=9.34D-08 DE= 1.01D-11 OVMax= 5.57D-08

 SCF Done:  E(UB3LYP) =  -231.282216268     A.U. after   13 cycles
            NFock= 13  Conv=0.31D-08     -V/T= 2.0066
 <Sx>= 0.0000 <Sy>= 0.0000 <Sz>= 0.0000 <S**2>=-0.0000 S=-0.0000
 <L.S>= 0.000000000000E+00
 KE= 2.297569218968D+02 PE=-9.173407322035D+02 EE= 2.607902027882D+02
 Annihilation of the first spin contaminant:
 S**2 before annihilation    -0.0000,   after     0.0000
 Leave Link  502 at Sat Nov  5 23:12:50 2016, MaxMem=   524288000 cpu:             234.5 elap:              36.4
 (Enter /home/ubuntu/g16/l601.exe)
 Copying SCF densities to generalized density rwf, IOpCl= 1 IROHF=0.

 **********************************************************************

            Population analysis using the SCF density.

 **********************************************************************

 Orbital symmetries:
 Alpha Orbitals:
       Occupied  (A) (A) (A) (A) (A) (A) (A) (A) (A) (A) (A) (A)
                 (A) (A) (A) (A) (A) (A) (A) (A)
       Virtual   (A) (A) (A) (A) (A) (A) (A) (A) (A) (A) (A) (A)
                 (A) (A) (A) (A) (A) (A) (A) (A) (A) (A) (A) (A)
                 (A) (A) (A) (A) (A) (A) (A) (A) (A) (A) (A) (A)
                 (A) (A) (A) (A) (A) (A) (A) (A) (A) (A) (A) (A)
                 (A) (A) (A) (A) (A) (A) (A) (A) (A) (A) (A) (A)
                 (A) (A) (A) (A) (A) (A) (A) (A) (A) (A) (A) (A)
                 (A) (A) (A) (A) (A) (A) (A) (A) (A) (A) (A) (A)
                 (A) (A) (A) (A) (A) (A) (A) (A) (A) (A) (A) (A)
                 (A) (A) (A) (A) (A) (A) (A) (A) (A) (A) (A) (A)
                 (A) (A) (A) (A) (A) (A) (A) (A) (A) (A) (A) (A)
                 (A) (A) (A) (A) (A) (A) (A) (A) (A) (A) (A) (A)
                 (A) (A) (A) (A) (A) (A) (A) (A) (A) (A) (A) (A)
                 (A) (A) (A) (A) (A) (A) (A) (A) (A) (A) (A) (A)
                 (A) (A) (A) (A) (A) (A) (A)
 Beta  Orbitals:
       Occupied  (A) (A) (A) (A) (A) (A) (A) (A) (A) (A) (A) (A)
                 (A) (A) (A) (A) (A) (A) (A) (A)
       Virtual   (A) (A) (A) (A) (A) (A) (A) (A) (A) (A) (A) (A)
                 (A) (A) (A) (A) (A) (A) (A) (A) (A) (A) (A) (A)
                 (A) (A) (A) (A) (A) (A) (A) (A) (A) (A) (A) (A)
                 (A) (A) (A) (A) (A) (A) (A) (A) (A) (A) (A) (A)
                 (A) (A) (A) (A) (A) (A) (A) (A) (A) (A) (A) (A)
                 (A) (A) (A) (A) (A) (A) (A) (A) (A) (A) (A) (A)
                 (A) (A) (A) (A) (A) (A) (A) (A) (A) (A) (A) (A)
                 (A) (A) (A) (A) (A) (A) (A) (A) (A) (A) (A) (A)
                 (A) (A) (A) (A) (A) (A) (A) (A) (A) (A) (A) (A)
                 (A) (A) (A) (A) (A) (A) (A) (A) (A) (A) (A) (A)
                 (A) (A) (A) (A) (A) (A) (A) (A) (A) (A) (A) (A)
                 (A) (A) (A) (A) (A) (A) (A) (A) (A) (A) (A) (A)
                 (A) (A) (A) (A) (A) (A) (A) (A) (A) (A) (A) (A)
                 (A) (A) (A) (A) (A) (A) (A)
 The electronic state is 1-A.
     Natural Orbital Coefficients:
                           1         2         3         4         5
     Eigenvalues --     2.00000   2.00000   2.00000   2.00000   2.00000
   1 1   C  1S          0.07025  -0.09249  -0.05206  -0.06204  -0.06215
   2        2S         -0.16849   0.00862   0.06881   0.03485   0.08852
   3        3S         -0.20280   0.13591   0.08076   0.06482   0.23238
   4        4S          0.84740   0.12772  -0.10872   0.08802  -0.17931
   5        5PX        -0.15547  -0.09859   0.02994  -0.10505   0.00186
   6        5PY         0.01174   0.01894  -0.09584  -0.08244  -0.02433
   7        5PZ         0.10619   0.02434   0.23657   0.19526   0.04251
   8        6PX         0.04480  -0.08378  -0.01962   0.04408  -0.10459
   9        6PY         0.16894   0.11792   0.04662  -0.03422   0.04357
  10        6PZ         0.06014   0.01346   0.13427   0.11045   0.02359
  11        7PX        -0.08435  -0.04008   0.03284  -0.01857   0.02045
  12        7PY        -0.08582   0.00810  -0.00485   0.07844  -0.00915
  13        7PZ         0.00211  -0.00640   0.00884  -0.00668   0.00376
  14        8D 0        0.00384   0.00217  -0.00254  -0.00207  -0.00151
  15        8D+1       -0.00636   0.00079  -0.01167  -0.00255  -0.00854
  16        8D-1        0.00247  -0.00709   0.00423  -0.01607   0.01225
  17        8D+2       -0.00496   0.00301  -0.00588  -0.01142   0.00188
  18        8D-2       -0.01657  -0.00789  -0.00319  -0.00789  -0.00323
  19        9D 0       -0.00230   0.00739   0.00094   0.00355   0.00564
  20        9D+1       -0.00272  -0.00450  -0.00321  -0.00997  -0.00053
  21        9D-1       -0.00100  -0.00327  -0.00142  -0.00800   0.00213
  22        9D+2        0.06460   0.05410   0.02605   0.01443   0.02988
  23        9D-2        0.07326  -0.00376  -0.04532   0.03626  -0.04306
  24 2   C  1S         -0.15149   0.13717  -0.11813  -0.06120   0.14151
  25        2S          0.03439  -0.17326   0.03564   0.08769  -0.09761
  26        3S          0.06512  -0.24962   0.05553   0.19952  -0.09507
  27        4S         -0.65484   0.16671   0.07581  -0.05357   0.28522
  28        5PX         0.12806   0.01484   0.06393   0.02833   0.04242
  29        5PY        -0.14588   0.09939   0.12177   0.06701   0.14597
  30        5PZ         0.00256   0.11857   0.01265   0.30340  -0.15582
  31        6PX        -0.01598   0.18676  -0.01486  -0.12149   0.08140
  32        6PY         0.18842   0.14279   0.07986   0.00445   0.03950
  33        6PZ        -0.00288   0.05351   0.00714   0.14734  -0.08702
  34        7PX         0.05077   0.00153  -0.01502   0.02806  -0.03923
  35        7PY        -0.11633  -0.03007   0.00717   0.04933   0.00062
  36        7PZ         0.00061   0.00837  -0.00072   0.01804  -0.00701
  37        8D 0        0.00316   0.00318  -0.00123  -0.00225   0.00185
  38        8D+1        0.00317  -0.00938   0.00977  -0.01487   0.01038
  39        8D-1        0.00665  -0.00071   0.01564   0.00799   0.00439
  40        8D+2        0.00505  -0.00447  -0.00692  -0.00147  -0.01001
  41        8D-2       -0.01008  -0.00594  -0.00576  -0.01152  -0.00527
  42        9D 0        0.00033  -0.01025  -0.00306  -0.00443  -0.00761
  43        9D+1        0.00182   0.00357   0.00149   0.00705   0.00050
  44        9D-1        0.00060  -0.00295   0.00306  -0.00395   0.00182
  45        9D+2       -0.06350  -0.03462   0.01611   0.03065   0.00612
  46        9D-2        0.02768  -0.05804  -0.01079   0.03553  -0.02377
  47 3   C  1S          0.09695  -0.39086  -0.43001   0.39419   0.60036
  48        2S          0.00572  -0.02077  -0.10695  -0.01024  -0.04976
  49        3S          0.12505   0.12580  -0.26493  -0.17678  -0.20022
  50        4S          0.46351  -0.00876   0.03530  -0.03705  -0.16899
  51        5PX        -0.05007  -0.20350  -0.03869   0.00620  -0.13987
  52        5PY        -0.09349  -0.02009   0.05227   0.04880   0.02382
  53        5PZ        -0.06827   0.16177  -0.20623   0.22788  -0.17863
  54        6PX        -0.00989   0.28356   0.11260  -0.15416   0.19212
  55        6PY        -0.02600  -0.00554  -0.01558  -0.00061   0.01502
  56        6PZ        -0.03638   0.08387  -0.10888   0.11792  -0.09419
  57        7PX        -0.00205  -0.11332  -0.04682   0.08830  -0.09783
  58        7PY         0.10289  -0.02504  -0.00811  -0.00867  -0.04325
  59        7PZ        -0.00439  -0.00513  -0.00511  -0.01144  -0.00272
  60        8D 0       -0.00259   0.00689  -0.00046  -0.00177   0.00460
  61        8D+1        0.00188   0.00304   0.01027   0.01881  -0.01041
  62        8D-1        0.00141   0.00367   0.00057   0.00696  -0.00025
  63        8D+2        0.01587  -0.00681  -0.00435   0.00004  -0.00878
  64        8D-2        0.00089   0.00255   0.00030   0.00123   0.00154
  65        9D 0       -0.00904   0.00553  -0.00696   0.00331   0.01346
  66        9D+1        0.00036   0.00072   0.00234   0.00414  -0.00218
  67        9D-1        0.00322   0.00209   0.00454   0.00547   0.00289
  68        9D+2        0.03620   0.00110   0.00233  -0.01148  -0.03657
  69        9D-2        0.00650   0.06707   0.01927  -0.01502   0.04252
  70 4   C  1S         -0.05806  -0.05122  -0.25773   0.00823   0.20820
  71        2S          0.02445  -0.11420   0.07515   0.02938  -0.05384
  72        3S         -0.00185  -0.12184   0.16325   0.03580  -0.04301
  73        4S         -0.64455  -0.00412  -0.01529   0.10657   0.13639
  74        5PX        -0.06631   0.16469  -0.05231  -0.01546   0.09434
  75        5PY        -0.20263  -0.14816   0.07247   0.07537  -0.02435
  76        5PZ        -0.02880   0.06812  -0.15779  -0.00863   0.01697
  77        6PX        -0.00160   0.08308   0.13082  -0.02139   0.08848
  78        6PY         0.10160  -0.30620  -0.01704   0.04704  -0.26959
  79        6PZ        -0.02101   0.02454  -0.09075  -0.03198   0.01241
  80        7PX        -0.04842  -0.06178  -0.00928   0.04636  -0.02783
  81        7PY        -0.11823   0.06187   0.04639  -0.02785   0.07938
  82        7PZ        -0.00028   0.00660  -0.00660   0.00724  -0.00108
  83        8D 0        0.00450   0.00329  -0.00254  -0.00046   0.00225
  84        8D+1       -0.00351   0.00880  -0.01167   0.01138  -0.00845
  85        8D-1        0.00513  -0.00318   0.00723  -0.00739   0.01290
  86        8D+2        0.00878   0.01015  -0.00481  -0.00409   0.00177
  87        8D-2       -0.00072  -0.01683   0.00446  -0.00467  -0.00493
  88        9D 0        0.00723   0.00514  -0.00193   0.00177   0.00257
  89        9D+1       -0.00199  -0.00350  -0.00157  -0.00720  -0.00031
  90        9D-1        0.00030  -0.00325   0.00187  -0.00603   0.00301
  91        9D+2       -0.06091   0.05746   0.04540  -0.00513   0.06913
  92        9D-2       -0.01949  -0.00081  -0.01901   0.02399  -0.02608
  93 5   C  1S          0.19894  -0.04742  -0.11343  -0.07372   0.05357
  94        2S         -0.21348  -0.07931   0.08086   0.03928   0.00545
  95        3S         -0.39606  -0.24326   0.09345  -0.00446  -0.06195
  96        4S          0.76329   0.04864  -0.10108  -0.20906  -0.11600
  97        5PX         0.02714  -0.07818  -0.02419  -0.18200  -0.01862
  98        5PY         0.04729   0.17965  -0.06292  -0.05462   0.07463
  99        5PZ         0.07907  -0.01964   0.08866  -0.07558   0.19239
 100        6PX        -0.12322  -0.21266  -0.01578   0.03989  -0.14729
 101        6PY         0.07321  -0.32626  -0.03574   0.03981  -0.28860
 102        6PZ         0.04425  -0.01167   0.04968  -0.04449   0.10947
 103        7PX         0.07816   0.09888  -0.00820  -0.05577   0.04226
 104        7PY        -0.10469   0.07690   0.02632  -0.08049   0.09509
 105        7PZ         0.00132  -0.00774   0.00427  -0.01500   0.00833
 106        8D 0        0.00431   0.00139  -0.00368  -0.00256  -0.00087
 107        8D+1        0.00632  -0.00080   0.01159   0.00241   0.00863
 108        8D-1        0.00421  -0.00430   0.01360   0.00111   0.00274
 109        8D+2       -0.00068   0.00889  -0.00674  -0.00300   0.00400
 110        8D-2        0.00788  -0.00823   0.00313  -0.00481  -0.00419
 111        9D 0       -0.00681  -0.00384   0.00003  -0.00260  -0.00002
 112        9D+1        0.00274   0.00401   0.00201   0.00782   0.00159
 113        9D-1       -0.00054  -0.00253   0.00164  -0.00239  -0.00101
 114        9D+2        0.02254  -0.12448  -0.00698   0.01810  -0.09322
 115        9D-2       -0.06851  -0.06476   0.02779   0.08119  -0.05484
 116 6   C  1S          0.07810   0.04691  -0.01282  -0.24215   0.01425
 117        2S          0.03844   0.10533   0.00931  -0.02152   0.07086
 118        3S          0.14157   0.25960  -0.12101  -0.10221   0.14313
 119        4S         -0.77769  -0.32889   0.10373   0.08769   0.01946
 120        5PX         0.06644   0.06466  -0.01901   0.11842   0.01176
 121        5PY         0.07809   0.08422   0.02489   0.06120   0.03576
 122        5PZ         0.13394  -0.03225   0.25391   0.02700   0.18996
 123        6PX        -0.05144  -0.29199  -0.05154   0.15490  -0.27088
 124        6PY        -0.08683  -0.09033   0.00080   0.01299  -0.03738
 125        6PZ         0.07085  -0.02936   0.14085  -0.00625   0.10748
 126        7PX        -0.01595   0.03618   0.01831  -0.11708   0.06781
 127        7PY         0.17520   0.01137  -0.02522  -0.02136  -0.03973
 128        7PZ         0.00464   0.00387   0.00624   0.00925   0.00382
 129        8D 0        0.00615  -0.00231  -0.00209  -0.00068  -0.00346
 130        8D+1        0.00117   0.00191   0.00643   0.01177  -0.00651
 131        8D-1       -0.00542  -0.00042  -0.00937  -0.00398  -0.00671
 132        8D+2       -0.01083   0.00338  -0.00449  -0.00528   0.00222
 133        8D-2       -0.00640  -0.00981   0.00068  -0.00967  -0.00427
 134        9D 0        0.00702   0.00314  -0.00449  -0.00648  -0.00109
 135        9D+1        0.00018   0.00025   0.00095   0.00174  -0.00095
 136        9D-1       -0.00022   0.00342  -0.00213   0.00571  -0.00221
 137        9D+2        0.05523   0.07101  -0.01496   0.00540   0.03764
 138        9D-2        0.03703   0.11282   0.01190  -0.00156   0.08342
 139 7   H  1S         -0.21203  -0.06930   0.01362  -0.10345   0.03210
 140        2S         -0.37368  -0.12669  -0.00156  -0.19737   0.03685
 141        3S          0.02634   0.00865  -0.01555  -0.01856  -0.00417
 142        4PX         0.01023   0.00121  -0.00193   0.00217  -0.00331
 143        4PY         0.00714   0.00249  -0.00305   0.00069  -0.00186
 144        4PZ         0.00377   0.00091   0.00838   0.00706   0.00142
 145        5PX         0.07309   0.02896  -0.00386   0.04075  -0.00673
 146        5PY         0.03539   0.01769   0.01532   0.02312   0.00841
 147        5PZ         0.00269   0.00243   0.00499   0.00805  -0.00013
 148 8   H  1S          0.17790  -0.12565   0.01315   0.05038  -0.09070
 149        2S          0.31011  -0.09899   0.00592   0.11349  -0.09694
 150        3S         -0.00956  -0.00741   0.00918   0.00768   0.00583
 151        4PX        -0.00859   0.01172   0.00028  -0.00158   0.00917
 152        4PY         0.00422  -0.00440   0.00341   0.00341  -0.00112
 153        4PZ         0.00006   0.00422   0.00057   0.01100  -0.00579
 154        5PX        -0.05482   0.00728  -0.00856  -0.02971   0.00756
 155        5PY         0.04910   0.00058  -0.00699   0.00659  -0.01376
 156        5PZ        -0.00073  -0.00201   0.00103  -0.00196  -0.00147
 157 9   H  1S          0.14228  -0.11889   0.05240  -0.01696  -0.09087
 158        2S          0.21526  -0.16144   0.06211  -0.07303  -0.11553
 159        3S         -0.01527  -0.01401   0.01061   0.00208   0.00027
 160        4PX         0.00910  -0.00359   0.00310  -0.00012  -0.00487
 161        4PY         0.00202  -0.00792   0.00434   0.00182  -0.00444
 162        4PZ        -0.00112   0.00229  -0.00590  -0.00083   0.00076
 163        5PX         0.02777  -0.03752   0.01828  -0.01633  -0.02119
 164        5PY         0.03767  -0.01822  -0.00501  -0.01277  -0.02194
 165        5PZ        -0.00132  -0.00292  -0.00207  -0.00763   0.00168
 166 10  H  1S         -0.11939   0.10042   0.03055   0.13315   0.05046
 167        2S         -0.21540   0.14989   0.01655   0.18536   0.07662
 168        3S          0.03526   0.02507  -0.01492   0.00063  -0.00009
 169        4PX        -0.00894   0.00254   0.00330   0.00492   0.00209
 170        4PY         0.00563   0.00109  -0.00321  -0.00555   0.00013
 171        4PZ         0.00276  -0.00067   0.00306  -0.00270   0.00682
 172        5PX        -0.04053   0.01605   0.00346   0.04313   0.00569
 173        5PY         0.01261  -0.04664   0.00691  -0.00165  -0.02770
 174        5PZ         0.00180   0.00126   0.00108   0.00090   0.00385
 175 11  H  1S          0.08337   0.11751   0.03409   0.05082   0.06638
 176        2S          0.23513   0.19108   0.02716   0.05355   0.08237
 177        3S         -0.03898  -0.01185   0.01465   0.01514   0.00839
 178        4PX         0.00166   0.00167  -0.00049   0.00287   0.00043
 179        4PY        -0.00409  -0.00808  -0.00156  -0.00178  -0.00462
 180        4PZ         0.00465  -0.00125   0.00889   0.00074   0.00666
 181        5PX        -0.00765  -0.01474   0.00027  -0.00508  -0.00962
 182        5PY        -0.05531  -0.03475  -0.00989  -0.01389  -0.01365
 183        5PZ         0.00188  -0.00226   0.00457  -0.00259   0.00372
                           6         7         8         9        10
     Eigenvalues --     2.00000   2.00000   2.00000   2.00000   2.00000
   1 1   C  1S          0.08446   0.12987  -0.00078   0.06356  -0.24582
   2        2S         -0.03840   0.05079  -0.06019   0.01556   0.00891
   3        3S         -0.08228   0.13274  -0.19938  -0.06194   0.15392
   4        4S         -0.10965  -0.36033  -0.04014   0.17468   0.06801
   5        5PX        -0.02498   0.05196  -0.02709  -0.10932   0.06186
   6        5PY         0.10674   0.13340   0.11034  -0.12901  -0.07978
   7        5PZ         0.16018   0.14850   0.06121  -0.03784   0.03521
   8        6PX         0.03010  -0.08490   0.11612  -0.01152  -0.09365
   9        6PY        -0.08077  -0.01949  -0.16642   0.05754   0.05391
  10        6PZ         0.09254   0.08347   0.03330  -0.02110   0.02024
  11        7PX        -0.02297   0.04144  -0.04490  -0.02874   0.01943
  12        7PY         0.07391  -0.02676   0.10971   0.06869  -0.07628
  13        7PZ         0.01498  -0.00528  -0.00601   0.00203   0.00200
  14        8D 0        0.00218   0.00162   0.00122  -0.00440   0.00124
  15        8D+1        0.00065  -0.00594  -0.00944   0.00198   0.00011
  16        8D-1       -0.00534  -0.00588   0.00634   0.00113  -0.00189
  17        8D+2        0.01316   0.00967   0.00438  -0.01191  -0.00805
  18        8D-2        0.00654   0.00942   0.00813  -0.00399   0.00023
  19        9D 0       -0.00094   0.00262  -0.00376  -0.00620  -0.00013
  20        9D+1        0.00520  -0.00861  -0.00737   0.00275   0.00034
  21        9D-1        0.00029  -0.00516  -0.00175   0.00144  -0.00046
  22        9D+2       -0.05210  -0.05195  -0.07384   0.06009   0.04078
  23        9D-2        0.04078  -0.03580   0.07307   0.04000  -0.03621
  24 2   C  1S          0.06614   0.03737   0.10729   0.06339   0.31385
  25        2S         -0.05576  -0.06976   0.04449   0.15872   0.05634
  26        3S         -0.15574  -0.11400  -0.03391   0.12658   0.18348
  27        4S          0.08176   0.17306  -0.00904   0.01794  -0.17890
  28        5PX        -0.06404  -0.03852  -0.16331  -0.07293   0.05893
  29        5PY        -0.11989  -0.07771  -0.17195   0.06528   0.06927
  30        5PZ         0.09691   0.14645  -0.04754  -0.03386   0.03385
  31        6PX         0.05178   0.01371  -0.02913   0.07979  -0.08896
  32        6PY        -0.11754  -0.13302  -0.16975   0.13848   0.04090
  33        6PZ         0.07687   0.06225  -0.04636  -0.01238   0.02138
  34        7PX         0.01966  -0.03618   0.05008   0.02474  -0.00797
  35        7PY         0.05038   0.02073   0.07048   0.01733  -0.03910
  36        7PZ        -0.00262   0.01082   0.00293  -0.00300   0.00060
  37        8D 0        0.00062   0.00015  -0.00311  -0.00596  -0.00094
  38        8D+1        0.00887  -0.00757  -0.00095   0.00222   0.00049
  39        8D-1        0.01173   0.00667   0.00276  -0.00159   0.00223
  40        8D+2        0.00533   0.00272   0.01499   0.00598  -0.00622
  41        8D-2        0.00847   0.00731   0.01165  -0.00593  -0.00198
  42        9D 0        0.00244   0.00071   0.00672   0.00256   0.00385
  43        9D+1       -0.00553   0.00629   0.00606  -0.00204  -0.00053
  44        9D-1        0.00561  -0.00289  -0.00260   0.00100   0.00066
  45        9D+2       -0.01013   0.00675   0.00062  -0.04228   0.01390
  46        9D-2        0.00631   0.00166   0.01406  -0.00666   0.02330
  47 3   C  1S          0.05896   0.03124  -0.27684  -0.10713  -0.14664
  48        2S          0.10681   0.03388   0.20760   0.19765  -0.12135
  49        3S          0.28746   0.13139   0.50682   0.35538  -0.17042
  50        4S         -0.16926  -0.15401  -0.11955  -0.00948   0.13571
  51        5PX         0.01915   0.01084   0.12981  -0.02712   0.03221
  52        5PY        -0.06835   0.00076  -0.02932   0.06257  -0.00430
  53        5PZ        -0.19855   0.11449   0.02302  -0.03558  -0.01728
  54        6PX        -0.07203  -0.05875  -0.27710   0.01972  -0.09600
  55        6PY         0.00150   0.03263   0.00741   0.03842   0.01556
  56        6PZ        -0.10293   0.05857   0.01066  -0.01815  -0.00890
  57        7PX         0.10264  -0.00034   0.16666   0.02053  -0.02579
  58        7PY        -0.02219  -0.01608  -0.01606  -0.01641   0.03307
  59        7PZ         0.00829  -0.01096  -0.01153   0.00354   0.00083
  60        8D 0        0.00105   0.00040  -0.00300  -0.00978   0.00490
  61        8D+1        0.02642   0.00625  -0.01242  -0.00047   0.00541
  62        8D-1       -0.00537   0.00582   0.00528  -0.00188  -0.00050
  63        8D+2        0.00089  -0.00334   0.00638   0.00845  -0.00320
  64        8D-2       -0.00091  -0.00887  -0.00190   0.00542   0.00646
  65        9D 0        0.00299   0.00495  -0.00242  -0.01005   0.00128
  66        9D+1        0.00577   0.00135  -0.00287  -0.00012   0.00120
  67        9D-1       -0.00381   0.00595   0.00689  -0.00194  -0.00036
  68        9D+2        0.00262  -0.01441   0.02402   0.02297  -0.01426
  69        9D-2       -0.00399  -0.00685  -0.04654   0.00820  -0.02508
  70 4   C  1S          0.13649  -0.04532   0.21942   0.11659   0.71278
  71        2S         -0.10944  -0.00678  -0.03658   0.11850  -0.02523
  72        3S         -0.24965   0.08049  -0.20018  -0.00487  -0.10433
  73        4S          0.30061   0.15809   0.27891   0.05787  -0.22147
  74        5PX         0.09254   0.05973   0.07431   0.08173  -0.08169
  75        5PY        -0.07447   0.08457   0.01002  -0.04519  -0.01268
  76        5PZ        -0.34144   0.04283   0.15851  -0.02637  -0.05564
  77        6PX        -0.11772  -0.09169  -0.22591  -0.04307  -0.02400
  78        6PY        -0.09278   0.08452   0.13914  -0.01828   0.01984
  79        6PZ        -0.17516   0.00264   0.07203  -0.00802  -0.03002
  80        7PX         0.04710   0.00954   0.06261   0.01215  -0.02245
  81        7PY        -0.02347   0.00985  -0.06486   0.00418  -0.02357
  82        7PZ        -0.01788   0.00717   0.00998  -0.00276  -0.00245
  83        8D 0        0.00051  -0.00023  -0.00279  -0.00573   0.00353
  84        8D+1       -0.01378   0.00640   0.00325  -0.00215  -0.00148
  85        8D-1       -0.00987   0.00155   0.01290  -0.00122  -0.00217
  86        8D+2        0.00165  -0.00145   0.00210   0.00817   0.00010
  87        8D-2       -0.00789  -0.00047  -0.00834  -0.00606   0.00196
  88        9D 0        0.00044  -0.00010   0.00056   0.00712   0.00541
  89        9D+1        0.00538  -0.00630  -0.00595   0.00206   0.00048
  90        9D-1        0.00275  -0.00355  -0.00115   0.00106   0.00007
  91        9D+2       -0.00786  -0.02790  -0.07154  -0.02231  -0.01371
  92        9D-2        0.03407   0.00947   0.07398   0.01421  -0.01829
  93 5   C  1S         -0.08063   0.18251  -0.21656  -0.07903  -0.08721
  94        2S          0.04094  -0.04214   0.03800   0.07539  -0.11371
  95        3S          0.14915  -0.00624   0.12400   0.00769  -0.13750
  96        4S         -0.26206  -0.08385  -0.24991  -0.10730   0.18905
  97        5PX         0.04107   0.02876  -0.05112  -0.06035  -0.05484
  98        5PY         0.14714  -0.12326   0.03843   0.04470  -0.02166
  99        5PZ        -0.22065   0.05851   0.23992  -0.03125  -0.04248
 100        6PX         0.08845   0.07302   0.18645   0.04304  -0.06020
 101        6PY        -0.02288   0.08300   0.17948  -0.01262   0.00933
 102        6PZ        -0.12530   0.03203   0.13564  -0.01738  -0.02426
 103        7PX        -0.03636  -0.02410  -0.06264  -0.00227   0.01178
 104        7PY        -0.02165   0.04183  -0.07946  -0.02898  -0.01702
 105        7PZ         0.00335  -0.00800  -0.00050   0.00220  -0.00034
 106        8D 0        0.00122   0.00296   0.00038  -0.00596   0.00604
 107        8D+1       -0.00083   0.00589   0.00954  -0.00198  -0.00015
 108        8D-1        0.01881  -0.00018  -0.00500   0.00071   0.00304
 109        8D+2        0.01490  -0.00085   0.00609  -0.00270  -0.00202
 110        8D-2       -0.00604  -0.00953  -0.00658  -0.00198   0.00065
 111        9D 0       -0.00026   0.00079  -0.00169  -0.00932   0.00056
 112        9D+1       -0.00832   0.00789   0.00873  -0.00273  -0.00090
 113        9D-1        0.00796  -0.00328  -0.00534   0.00133   0.00118
 114        9D+2       -0.04233   0.05165   0.04494  -0.01384   0.01104
 115        9D-2        0.00484  -0.01116   0.07084   0.03067  -0.01104
 116 6   C  1S         -0.07277   0.65823  -0.29350   0.49832   0.15793
 117        2S          0.02035  -0.08547  -0.02812   0.11749  -0.11429
 118        3S          0.18964  -0.17747   0.03127  -0.06058  -0.20881
 119        4S          0.18029   0.28720   0.16837  -0.11964  -0.02331
 120        5PX        -0.04926   0.08183   0.01741  -0.00386   0.02573
 121        5PY        -0.12882  -0.11714  -0.03844   0.06570   0.04238
 122        5PZ         0.00472   0.10755   0.18814  -0.03636  -0.00086
 123        6PX         0.10178   0.00359   0.33742   0.04448  -0.12208
 124        6PY         0.00376   0.09722   0.03809   0.01933   0.05710
 125        6PZ         0.01930   0.04240   0.08942  -0.01453   0.00106
 126        7PX        -0.07885   0.07808  -0.13303  -0.08911   0.04963
 127        7PY        -0.03078  -0.03000  -0.03203  -0.00206   0.02930
 128        7PZ        -0.00663   0.00969   0.01068  -0.00318  -0.00065
 129        8D 0       -0.00078   0.00141   0.00008  -0.00402   0.00376
 130        8D+1        0.01655   0.00391  -0.00777  -0.00029   0.00338
 131        8D-1        0.00214  -0.00639  -0.00905   0.00213   0.00025
 132        8D+2        0.01450   0.00601   0.00879  -0.00633  -0.00399
 133        8D-2        0.00319   0.00087   0.00148  -0.00430  -0.00483
 134        9D 0        0.00604   0.00532   0.00134   0.00539  -0.00149
 135        9D+1        0.00234   0.00058  -0.00117  -0.00005   0.00053
 136        9D-1       -0.00472   0.00408   0.00266  -0.00137  -0.00042
 137        9D+2       -0.02338  -0.05846  -0.01116   0.03682  -0.00931
 138        9D-2       -0.04016   0.00246  -0.09087   0.00258   0.04184
 139 7   H  1S          0.01779   0.12629   0.00588  -0.12756   0.01442
 140        2S          0.07371   0.24359   0.03326  -0.20762   0.02193
 141        3S          0.00641   0.00179   0.00416  -0.01124   0.00489
 142        4PX         0.00039  -0.00537   0.00069   0.00487  -0.00074
 143        4PY         0.00283  -0.00109   0.00269   0.00066  -0.00293
 144        4PZ         0.00575   0.00530   0.00212  -0.00134   0.00126
 145        5PX        -0.01024  -0.04218   0.00059   0.03408  -0.01072
 146        5PY        -0.02613  -0.03166  -0.02986   0.02290   0.01259
 147        5PZ         0.00185   0.00574   0.00279  -0.00153   0.00070
 148 8   H  1S         -0.02495  -0.03364  -0.01258   0.02068   0.03090
 149        2S         -0.05276  -0.07188  -0.04589  -0.01027   0.08448
 150        3S         -0.00636   0.00439  -0.01066  -0.00240   0.00016
 151        4PX        -0.00005   0.00137  -0.00402  -0.00342  -0.00016
 152        4PY        -0.00375  -0.00378  -0.00419   0.00256   0.00263
 153        4PZ         0.00407   0.00518  -0.00210  -0.00116   0.00132
 154        5PX         0.01584   0.01763   0.02020   0.00728  -0.01809
 155        5PY         0.00006  -0.00796   0.00234   0.00251   0.00220
 156        5PZ         0.00767  -0.00312  -0.00560   0.00125   0.00115
 157 9   H  1S         -0.09460  -0.07562  -0.08251   0.02664   0.02675
 158        2S         -0.16555  -0.09026  -0.16732  -0.06646   0.08857
 159        3S         -0.00152  -0.00545  -0.00830   0.00038  -0.00377
 160        4PX        -0.00445  -0.00408  -0.00320   0.00556  -0.00181
 161        4PY        -0.00588  -0.00173  -0.00328   0.00090  -0.00055
 162        4PZ        -0.01256   0.00125   0.00571  -0.00088  -0.00207
 163        5PX        -0.03428  -0.02000  -0.03757  -0.02395   0.01767
 164        5PY        -0.01129  -0.00908  -0.00416  -0.00595   0.01141
 165        5PZ        -0.00029  -0.00499  -0.00187   0.00138  -0.00046
 166 10  H  1S          0.06664  -0.08583   0.08421   0.10734  -0.03471
 167        2S          0.16123  -0.04710   0.16160   0.14026  -0.06637
 168        3S          0.00499  -0.00690   0.00706   0.00337   0.00752
 169        4PX         0.00398  -0.00677   0.00403   0.00600  -0.00368
 170        4PY         0.00150   0.00086  -0.00167  -0.00340   0.00114
 171        4PZ        -0.00797   0.00206   0.00857  -0.00110  -0.00153
 172        5PX         0.02590   0.00273   0.03598   0.02621  -0.01110
 173        5PY        -0.03124   0.00905  -0.00846  -0.01617   0.01190
 174        5PZ        -0.00810   0.00344   0.00756  -0.00141  -0.00135
 175 11  H  1S         -0.10886  -0.15841  -0.05129   0.11236  -0.02604
 176        2S         -0.19089  -0.22575  -0.12411   0.12161  -0.00449
 177        3S         -0.00984  -0.00210  -0.00141   0.00454   0.00148
 178        4PX        -0.00095   0.00155   0.00040   0.00013   0.00073
 179        4PY         0.00288   0.01071   0.00145  -0.00653   0.00520
 180        4PZ         0.00033   0.00360   0.00644  -0.00122  -0.00001
 181        5PX         0.00990  -0.00974   0.01042   0.00376  -0.00789
 182        5PY         0.04961   0.04738   0.03385  -0.02408  -0.00344
 183        5PZ         0.00254  -0.00059   0.00122   0.00018   0.00020
                          11        12        13        14        15
     Eigenvalues --     2.00000   2.00000   2.00000   2.00000   2.00000
   1 1   C  1S          0.08378  -0.35961  -0.43062  -0.05166  -0.03431
   2        2S         -0.03560  -0.09757  -0.00237  -0.08283   0.03208
   3        3S         -0.21741  -0.18651   0.06232  -0.28605   0.16679
   4        4S          0.16592   0.28079  -0.05717   0.00131  -0.17001
   5        5PX         0.03139  -0.03459   0.07295   0.35054  -0.02913
   6        5PY         0.09591   0.07986   0.01466  -0.12542  -0.16469
   7        5PZ         0.06149  -0.02301   0.04040   0.04628   0.03360
   8        6PX         0.20451   0.22446  -0.10127  -0.06314  -0.17753
   9        6PY        -0.21217  -0.27694   0.11837   0.17756   0.16680
  10        6PZ         0.03451  -0.01321   0.02314   0.02596   0.01865
  11        7PX        -0.06663  -0.11039   0.05390  -0.02000   0.10766
  12        7PY         0.03524   0.12926  -0.15102  -0.04485  -0.07915
  13        7PZ        -0.00413  -0.00034   0.00102  -0.00226  -0.00589
  14        8D 0       -0.00341   0.00258  -0.00138   0.00193  -0.00118
  15        8D+1       -0.00125  -0.00002  -0.00005  -0.00150  -0.00212
  16        8D-1       -0.00553   0.00168  -0.00258  -0.00271  -0.00286
  17        8D+2        0.01032   0.00433   0.00076  -0.01173   0.00911
  18        8D-2       -0.00627  -0.00159   0.00371   0.01377   0.00569
  19        9D 0       -0.00664  -0.00750  -0.00640  -0.00454  -0.00686
  20        9D+1       -0.00456   0.00041  -0.00050  -0.00300  -0.00508
  21        9D-1       -0.00310   0.00066  -0.00092  -0.00200  -0.00273
  22        9D+2       -0.08617  -0.10012   0.03733   0.08765   0.06731
  23        9D-2        0.04357   0.09650  -0.06495  -0.10580  -0.03784
  24 2   C  1S         -0.12718   0.10034   0.21594  -0.39183   0.22026
  25        2S         -0.02826   0.00440  -0.03735   0.06584   0.04701
  26        3S         -0.13014   0.00912  -0.19848   0.26515  -0.05153
  27        4S         -0.15949  -0.29314   0.13705  -0.06960   0.12291
  28        5PX         0.07127   0.00991  -0.07419  -0.03198   0.05315
  29        5PY        -0.10953  -0.13847   0.03729   0.05153   0.11861
  30        5PZ         0.10644  -0.03031   0.04719   0.05880   0.06421
  31        6PX        -0.07412  -0.18637   0.19762   0.02798   0.17420
  32        6PY        -0.17998  -0.25326   0.10848   0.22058   0.15583
  33        6PZ         0.04839  -0.01669   0.02676   0.02581   0.02193
  34        7PX         0.03842   0.09842  -0.06356   0.01016  -0.06548
  35        7PY         0.03980   0.09027  -0.10964  -0.00826  -0.06935
  36        7PZ         0.00725  -0.00124   0.00172   0.00419   0.00632
  37        8D 0        0.00330   0.00290  -0.00086  -0.00127  -0.00103
  38        8D+1       -0.00657   0.00069  -0.00065  -0.00336  -0.00632
  39        8D-1        0.00203  -0.00122   0.00226   0.00187   0.00037
  40        8D+2        0.00195   0.00213   0.00407   0.00020  -0.01241
  41        8D-2        0.00238   0.00193   0.00387   0.01821  -0.00296
  42        9D 0        0.00340   0.00629   0.00217   0.00235   0.00625
  43        9D+1        0.00338  -0.00019   0.00011   0.00223   0.00411
  44        9D-1       -0.00210  -0.00005   0.00024  -0.00118  -0.00268
  45        9D+2        0.04193   0.06654  -0.04929  -0.07287  -0.03679
  46        9D-2        0.03460   0.06731  -0.07460  -0.04502  -0.01521
  47 3   C  1S         -0.02421   0.19331   0.08219   0.04602   0.05933
  48        2S         -0.08389  -0.13179   0.13665   0.09580  -0.04277
  49        3S         -0.21744  -0.28776   0.21138   0.26368  -0.14717
  50        4S          0.12363   0.05374   0.04815  -0.02453  -0.04179
  51        5PX         0.03466   0.18983  -0.09353   0.03078  -0.05443
  52        5PY        -0.00085  -0.05767   0.07208  -0.02307  -0.04800
  53        5PZ         0.10669  -0.00705   0.00246   0.05300   0.11063
  54        6PX        -0.09448  -0.30525   0.34106   0.05514   0.34758
  55        6PY        -0.00476  -0.04135   0.01764  -0.02110  -0.00384
  56        6PZ         0.05519  -0.00355   0.00119   0.02725   0.05703
  57        7PX         0.08716   0.24314  -0.22114   0.02487  -0.13164
  58        7PY         0.00089   0.00385   0.00630  -0.00858   0.01569
  59        7PZ        -0.00543   0.00013  -0.00001  -0.00369  -0.00657
  60        8D 0        0.00015   0.00523  -0.00541   0.00095  -0.00222
  61        8D+1        0.00447  -0.00315   0.00548   0.00246  -0.00138
  62        8D-1        0.00330  -0.00016   0.00008   0.00208   0.00383
  63        8D+2       -0.00324  -0.00242   0.00304   0.00883  -0.00129
  64        8D-2       -0.00948  -0.00169  -0.00516   0.00916   0.01439
  65        9D 0       -0.00824   0.00263  -0.00225   0.00939  -0.00954
  66        9D+1        0.00099  -0.00077   0.00123   0.00057  -0.00018
  67        9D-1        0.00260  -0.00009   0.00006   0.00190   0.00333
  68        9D+2        0.00143  -0.00859   0.01478   0.01168  -0.00248
  69        9D-2       -0.01307  -0.05372   0.04838  -0.00119   0.04427
  70 4   C  1S          0.37691  -0.21338  -0.24092   0.00991  -0.09314
  71        2S          0.01968  -0.12608   0.14536  -0.06427  -0.01301
  72        3S         -0.08993  -0.13919   0.30219  -0.07124  -0.12399
  73        4S          0.00296   0.16857  -0.29403   0.05784  -0.05902
  74        5PX        -0.02555  -0.15867   0.09795   0.04291  -0.07389
  75        5PY         0.09637   0.09751  -0.00346  -0.09089  -0.21795
  76        5PZ         0.03234   0.02228  -0.04402   0.01798   0.08709
  77        6PX        -0.03438  -0.07510   0.12175   0.01860   0.18444
  78        6PY         0.01311   0.13122  -0.00637  -0.00041  -0.32977
  79        6PZ         0.00576   0.01346  -0.02574   0.00243   0.03524
  80        7PX        -0.00983   0.08099  -0.09916  -0.00663  -0.00088
  81        7PY        -0.02721  -0.09043   0.06380   0.00009   0.06549
  82        7PZ         0.00470   0.00057  -0.00139   0.00273   0.00714
  83        8D 0       -0.00086   0.00286  -0.00408   0.00048  -0.00011
  84        8D+1        0.00574  -0.00008  -0.00039   0.00290   0.00658
  85        8D-1       -0.00162   0.00136  -0.00222  -0.00014   0.00151
  86        8D+2       -0.00736  -0.01641   0.01122   0.00741   0.00284
  87        8D-2        0.01823   0.00493   0.00765  -0.00194   0.00594
  88        9D 0       -0.00168  -0.00931   0.00113  -0.00704   0.00030
  89        9D+1       -0.00341   0.00014  -0.00018  -0.00216  -0.00408
  90        9D-1       -0.00265   0.00031  -0.00041  -0.00143  -0.00256
  91        9D+2        0.03073  -0.00694   0.01196  -0.01617   0.08046
  92        9D-2       -0.00875   0.04286  -0.04396   0.02586  -0.08433
  93 5   C  1S          0.00129  -0.45833  -0.33940  -0.02068  -0.04918
  94        2S          0.11737   0.10504  -0.12052   0.00619   0.06189
  95        3S          0.27595   0.36654  -0.18125  -0.01010   0.19126
  96        4S          0.25394  -0.09858   0.46038   0.02365  -0.16631
  97        5PX         0.28642  -0.03542   0.17573   0.00214   0.20328
  98        5PY        -0.02573   0.03055  -0.13107   0.15761   0.21804
  99        5PZ        -0.00263   0.02255  -0.03853   0.01070   0.05343
 100        6PX         0.02389   0.21205  -0.15542  -0.00549  -0.07463
 101        6PY        -0.04995   0.19063  -0.09778   0.02918  -0.20321
 102        6PZ        -0.00225   0.01299  -0.02224   0.00557   0.03005
 103        7PX         0.02718  -0.05362   0.09973   0.03330  -0.01831
 104        7PY         0.02037  -0.14386   0.13935   0.01593   0.05816
 105        7PZ        -0.00614   0.00107  -0.00140  -0.00326  -0.00532
 106        8D 0       -0.00578  -0.00002  -0.00109   0.00415  -0.00035
 107        8D+1        0.00120   0.00004  -0.00000   0.00150   0.00212
 108        8D-1       -0.00144  -0.00121   0.00244  -0.00046  -0.00411
 109        8D+2       -0.00122   0.00653  -0.01418  -0.00657   0.01752
 110        8D-2        0.01865   0.00719   0.00344   0.00392   0.00548
 111        9D 0        0.00062   0.00079  -0.00590   0.00803   0.00050
 112        9D+1        0.00410  -0.00003  -0.00005   0.00257   0.00520
 113        9D-1       -0.00195  -0.00023   0.00063  -0.00118  -0.00331
 114        9D+2        0.01086   0.04733   0.02077  -0.01655  -0.14001
 115        9D-2       -0.06982   0.11010  -0.12479   0.00850  -0.07103
 116 6   C  1S         -0.12407   0.32232  -0.09233   0.16323  -0.02322
 117        2S          0.25100   0.06681   0.02000  -0.11083   0.00873
 118        3S          0.46343   0.05588   0.01910  -0.36832   0.15184
 119        4S         -0.38538  -0.14544  -0.22837  -0.05826   0.36132
 120        5PX        -0.15665  -0.03164  -0.02180  -0.27749  -0.21332
 121        5PY         0.01012  -0.01402   0.05600   0.20292  -0.29312
 122        5PZ         0.01418   0.00123   0.00054   0.02495   0.03150
 123        6PX         0.12106   0.46792  -0.31016  -0.17727  -0.32528
 124        6PY        -0.16090  -0.02992  -0.00241   0.07191   0.01941
 125        6PZ        -0.00238   0.00119  -0.00012   0.00769   0.00589
 126        7PX        -0.01508  -0.20507   0.22911   0.01150   0.06394
 127        7PY         0.03128   0.03246   0.03379   0.00173  -0.01553
 128        7PZ         0.00447  -0.00022   0.00019   0.00314   0.00559
 129        8D 0       -0.00579  -0.00153  -0.00046   0.00317  -0.00064
 130        8D+1        0.00279  -0.00198   0.00343   0.00155  -0.00085
 131        8D-1       -0.00193   0.00003  -0.00005  -0.00179  -0.00280
 132        8D+2       -0.00342   0.00547  -0.00985   0.00034   0.01008
 133        8D-2        0.01624   0.00508   0.00535   0.01275   0.00498
 134        9D 0        0.00419   0.00700   0.00012  -0.00356   0.00672
 135        9D+1        0.00036  -0.00032   0.00053   0.00021  -0.00019
 136        9D-1        0.00276  -0.00020   0.00015   0.00152   0.00321
 137        9D+2        0.07287  -0.00159   0.03813   0.01907  -0.09300
 138        9D-2       -0.09378  -0.13753   0.06590  -0.02082   0.05228
 139 7   H  1S          0.04717  -0.03547   0.07253   0.15804  -0.04835
 140        2S          0.02272  -0.07003   0.11157   0.21397   0.03669
 141        3S          0.00908   0.01193   0.00887   0.03330  -0.01522
 142        4PX        -0.00152   0.00172  -0.00282  -0.00191   0.00376
 143        4PY         0.00128   0.00305  -0.00214  -0.00775  -0.00071
 144        4PZ         0.00222  -0.00083   0.00145   0.00165   0.00122
 145        5PX         0.00383   0.02240  -0.02502  -0.06011  -0.02706
 146        5PY        -0.01738  -0.01776  -0.00152   0.00681   0.00902
 147        5PZ         0.00298  -0.00066   0.00109   0.00193   0.00239
 148 8   H  1S          0.07730   0.06254  -0.09259  -0.02303   0.00552
 149        2S          0.05842   0.11313  -0.18178  -0.05402  -0.05966
 150        3S          0.00614  -0.00452  -0.01050  -0.01944   0.00061
 151        4PX        -0.00456  -0.00387   0.00431  -0.00287   0.00001
 152        4PY         0.00158   0.00005  -0.00317   0.00233   0.00339
 153        4PZ         0.00380  -0.00114   0.00179   0.00209   0.00217
 154        5PX        -0.00990  -0.02178   0.04049   0.02346   0.01381
 155        5PY        -0.00078   0.00427  -0.01111   0.00163  -0.01237
 156        5PZ        -0.00161  -0.00038   0.00077  -0.00110  -0.00289
 157 9   H  1S         -0.00533  -0.00606   0.03930  -0.02673   0.15121
 158        2S          0.01873  -0.00944   0.10347   0.01422   0.18195
 159        3S          0.00743   0.01134  -0.01363   0.00047   0.02319
 160        4PX        -0.00372  -0.00463   0.00448  -0.00186   0.00792
 161        4PY         0.00128   0.00223   0.00172  -0.00393   0.00084
 162        4PZ         0.00099   0.00085  -0.00167   0.00054   0.00304
 163        5PX         0.01573   0.01083   0.01700   0.00543   0.03939
 164        5PY        -0.00352  -0.00207   0.01143   0.01609   0.01092
 165        5PZ        -0.00297   0.00056  -0.00089  -0.00180  -0.00247
 166 10  H  1S         -0.16661   0.09197  -0.23727   0.04288  -0.01519
 167        2S         -0.27805   0.12403  -0.37499  -0.00172   0.01245
 168        3S         -0.01700   0.00968  -0.00763   0.01219  -0.02051
 169        4PX        -0.00171   0.00751  -0.01129   0.00466   0.00306
 170        4PY         0.00375  -0.00305   0.00457   0.00070   0.00545
 171        4PZ        -0.00011   0.00083  -0.00142   0.00039   0.00192
 172        5PX        -0.06140   0.02631  -0.07191  -0.01409  -0.01583
 173        5PY         0.01792   0.00976   0.02698  -0.00404  -0.03178
 174        5PZ         0.00119   0.00057  -0.00111   0.00102   0.00296
 175 11  H  1S          0.14881   0.01013   0.07062   0.09440  -0.23875
 176        2S          0.22887   0.00486   0.12833   0.10338  -0.36123
 177        3S         -0.00719  -0.01365  -0.00595   0.00480  -0.00780
 178        4PX        -0.00351  -0.00067  -0.00101  -0.00581  -0.00461
 179        4PY        -0.01337  -0.00221  -0.00274  -0.00138   0.00949
 180        4PZ         0.00039   0.00005   0.00001   0.00081   0.00100
 181        5PX         0.02120   0.01983  -0.01139   0.02255   0.00999
 182        5PY        -0.04510   0.00114  -0.02899  -0.02186   0.07844
 183        5PZ        -0.00129   0.00012  -0.00010  -0.00048  -0.00115
                          16        17        18        19        20
     Eigenvalues --     2.00000   2.00000   2.00000   2.00000   2.00000
   1 1   C  1S         -0.34633  -0.44101   0.23137  -0.30660   0.36507
   2        2S          0.02977   0.13822   0.10359   0.19003   0.14504
   3        3S          0.22163   0.32471   0.11205   0.30003   0.19190
   4        4S         -0.15686  -0.13510  -0.28702  -0.25881  -0.05210
   5        5PX        -0.15604  -0.02089   0.05521   0.04420  -0.04069
   6        5PY        -0.04810   0.06166   0.16029   0.12384  -0.07478
   7        5PZ        -0.00784  -0.04864  -0.01745   0.03177  -0.00743
   8        6PX        -0.01574  -0.17138  -0.10941  -0.12599  -0.07226
   9        6PY        -0.11318   0.17602   0.11649  -0.11551  -0.06412
  10        6PZ        -0.00435  -0.02763  -0.01000   0.01796  -0.00422
  11        7PX         0.07056  -0.02189   0.09179   0.03240  -0.01314
  12        7PY        -0.02787   0.04671  -0.11240  -0.07461   0.00504
  13        7PZ         0.00027  -0.00026  -0.00118   0.00025   0.00007
  14        8D 0       -0.00169  -0.00353   0.00196  -0.00637  -0.00776
  15        8D+1       -0.00003   0.00148   0.00083  -0.00056   0.00011
  16        8D-1        0.00085   0.00150  -0.00049  -0.00147   0.00048
  17        8D+2        0.00120   0.00493   0.01117   0.00256  -0.00768
  18        8D-2        0.00723  -0.01184  -0.00329   0.00254  -0.00043
  19        9D 0       -0.00384   0.00149   0.00361  -0.00854   0.00231
  20        9D+1        0.00037   0.00144  -0.00016  -0.00091   0.00025
  21        9D-1        0.00037   0.00106  -0.00011  -0.00079   0.00023
  22        9D+2       -0.01777   0.01067  -0.01644  -0.05778   0.00157
  23        9D-2        0.03686  -0.07371  -0.08402  -0.04690   0.00915
  24 2   C  1S         -0.63748  -0.29892  -0.13163   0.13721  -0.16590
  25        2S         -0.06711   0.10754  -0.11736   0.06883   0.14796
  26        3S          0.10875   0.08100  -0.28553   0.03316   0.30117
  27        4S          0.43256  -0.24756   0.33693   0.23015  -0.16460
  28        5PX        -0.19561   0.26553   0.08282  -0.13523  -0.04871
  29        5PY         0.09607  -0.06724  -0.06002  -0.03568   0.07299
  30        5PZ        -0.01498  -0.03772   0.00245   0.03081  -0.00921
  31        6PX        -0.02653  -0.12890   0.11522  -0.06163  -0.13995
  32        6PY        -0.10617   0.05668   0.05692  -0.13963  -0.05065
  33        6PZ        -0.00750  -0.01876   0.00034   0.01625  -0.00461
  34        7PX        -0.07475   0.03587  -0.10740  -0.04951   0.03168
  35        7PY        -0.06172   0.10922  -0.09066  -0.03978   0.05296
  36        7PZ        -0.00082  -0.00198   0.00043   0.00146  -0.00048
  37        8D 0       -0.00059  -0.00543   0.00280  -0.00477  -0.00554
  38        8D+1        0.00074   0.00065  -0.00118  -0.00057   0.00033
  39        8D-1       -0.00029  -0.00266  -0.00127   0.00173  -0.00036
  40        8D+2       -0.00089  -0.00699  -0.00749  -0.00409  -0.00313
  41        8D-2       -0.00099  -0.00865   0.00459   0.01162  -0.00292
  42        9D 0       -0.00446  -0.00665  -0.00604   0.00833   0.00251
  43        9D+1       -0.00023  -0.00097   0.00021   0.00051  -0.00018
  44        9D-1        0.00012   0.00016  -0.00042  -0.00007   0.00005
  45        9D+2        0.06945  -0.01315  -0.02531   0.04346   0.03784
  46        9D-2       -0.03848   0.06458  -0.05511  -0.02585   0.04452
  47 3   C  1S         -0.01054  -0.06660   0.05942  -0.03775   0.02415
  48        2S          0.01016   0.03557  -0.00417   0.04435  -0.02327
  49        3S         -0.02579   0.01693   0.00086   0.10589  -0.08155
  50        4S         -0.08929  -0.07338  -0.00583  -0.02416   0.02579
  51        5PX         0.11017  -0.18878  -0.12300   0.20367   0.15419
  52        5PY         0.04625  -0.04776  -0.12797  -0.08476   0.04187
  53        5PZ        -0.01158  -0.00334   0.02376   0.00405  -0.00447
  54        6PX        -0.10826  -0.16091   0.30721  -0.12723  -0.26527
  55        6PY         0.01092  -0.03157  -0.05757  -0.03557   0.00884
  56        6PZ        -0.00582  -0.00164   0.01240   0.00224  -0.00217
  57        7PX        -0.23362   0.25092  -0.28419  -0.15924   0.13579
  58        7PY        -0.01355  -0.00808   0.00410  -0.01629  -0.00206
  59        7PZ         0.00049   0.00162   0.00013  -0.00074   0.00023
  60        8D 0       -0.00122  -0.00296   0.00087  -0.00029  -0.00040
  61        8D+1       -0.00098  -0.00353  -0.00099   0.00312  -0.00073
  62        8D-1       -0.00028  -0.00081   0.00020   0.00038  -0.00017
  63        8D+2       -0.00685   0.00479   0.01051   0.00816  -0.00425
  64        8D-2        0.01292  -0.01129  -0.00271   0.01488   0.01309
  65        9D 0       -0.00029  -0.00746  -0.00338  -0.00397  -0.00037
  66        9D+1       -0.00028  -0.00072  -0.00012   0.00063  -0.00024
  67        9D-1       -0.00010  -0.00113  -0.00014   0.00051  -0.00015
  68        9D+2       -0.00556   0.01465   0.01563   0.01737  -0.00402
  69        9D-2       -0.06667   0.03523   0.04317  -0.07382  -0.04817
  70 4   C  1S          0.24056   0.02151   0.08082  -0.08754  -0.01939
  71        2S         -0.00620  -0.02659   0.16039  -0.04386  -0.17902
  72        3S         -0.16849  -0.15344   0.17332  -0.23284  -0.29581
  73        4S         -0.18205   0.43961  -0.36406  -0.11431   0.14885
  74        5PX        -0.08782   0.20354  -0.10537  -0.19373  -0.01602
  75        5PY        -0.02698  -0.02034  -0.14893  -0.12881  -0.00484
  76        5PZ         0.00139   0.02069   0.01883  -0.02085   0.00308
  77        6PX        -0.07135  -0.10325   0.19070  -0.06117  -0.13732
  78        6PY         0.00136  -0.11650  -0.07686   0.07025   0.02012
  79        6PZ         0.00184   0.01501   0.00995  -0.01336   0.00237
  80        7PX        -0.05750   0.07978  -0.07975  -0.05084   0.01240
  81        7PY         0.08814  -0.07500   0.09805   0.07986  -0.05018
  82        7PZ        -0.00022  -0.00007   0.00104  -0.00033  -0.00008
  83        8D 0        0.00006   0.00050  -0.00360   0.00307   0.00677
  84        8D+1       -0.00055  -0.00000   0.00138   0.00001  -0.00019
  85        8D-1        0.00052   0.00022  -0.00046  -0.00082   0.00025
  86        8D+2        0.00196   0.00107  -0.00257   0.00140   0.00406
  87        8D-2        0.00445  -0.01227  -0.00761   0.00065   0.00559
  88        9D 0        0.00026   0.00854   0.00919  -0.00612  -0.00580
  89        9D+1        0.00018   0.00113  -0.00018  -0.00054   0.00016
  90        9D-1        0.00025   0.00056  -0.00033  -0.00037   0.00015
  91        9D+2       -0.02801   0.02506   0.00711  -0.05404  -0.00824
  92        9D-2       -0.02958   0.05797  -0.06816  -0.01657   0.04205
  93 5   C  1S         -0.01006   0.00829  -0.48106   0.40700  -0.37995
  94        2S         -0.02767   0.00419   0.00976  -0.04879  -0.16386
  95        3S         -0.03546  -0.09027  -0.02612  -0.30726  -0.18898
  96        4S         -0.03452  -0.27021   0.06755   0.12091   0.22486
  97        5PX         0.01770  -0.01001  -0.10824  -0.03397   0.08279
  98        5PY         0.00447   0.02504   0.05443   0.09911   0.02038
  99        5PZ         0.00639   0.00197  -0.00344  -0.01332   0.00328
 100        6PX        -0.00887  -0.05997   0.00181  -0.11677  -0.15326
 101        6PY         0.03757  -0.15298  -0.04005   0.05628  -0.01495
 102        6PZ         0.00376   0.00144  -0.00174  -0.00772   0.00179
 103        7PX         0.03348  -0.09289   0.07361   0.07229   0.01598
 104        7PY         0.07009  -0.03776   0.07815   0.11363   0.02018
 105        7PZ         0.00065   0.00133  -0.00067  -0.00107   0.00039
 106        8D 0        0.00030   0.00017  -0.00059   0.00235   0.00508
 107        8D+1        0.00002  -0.00144  -0.00080   0.00055  -0.00011
 108        8D-1       -0.00005  -0.00172  -0.00140   0.00137  -0.00019
 109        8D+2        0.00794   0.00826   0.00187   0.00823   0.00619
[...]
    A5        2.17376  -0.00000   0.00000  -0.00004  -0.00004   2.17372
    A6        2.29490   0.00001   0.00000   0.00010   0.00010   2.29499
    A7        2.57251   0.00001   0.00000   0.00009   0.00009   2.57260
    A8        1.81447   0.00001   0.00000  -0.00000  -0.00000   1.81447
    A9        2.29464   0.00003   0.00000   0.00036   0.00036   2.29499
   A10        2.17407  -0.00003   0.00000  -0.00035  -0.00035   2.17372
   A11        2.12427  -0.00001   0.00000  -0.00004  -0.00004   2.12424
   A12        2.01666   0.00004   0.00000   0.00029   0.00029   2.01695
   A13        2.14225  -0.00003   0.00000  -0.00025  -0.00025   2.14200
   A14        2.11636  -0.00001   0.00000  -0.00001  -0.00001   2.11635
   A15        2.08353  -0.00001   0.00000  -0.00011  -0.00011   2.08342
   A16        2.08330   0.00002   0.00000   0.00012   0.00012   2.08342
    D1        0.00120  -0.00004   0.00000  -0.00120  -0.00120   0.00000
    D2       -3.14034  -0.00002   0.00000  -0.00126  -0.00126  -3.14159
    D3       -3.14123  -0.00002   0.00000  -0.00036  -0.00036   3.14159
    D4        0.00042   0.00000   0.00000  -0.00042  -0.00042   0.00000
    D5       -0.00051   0.00002   0.00000   0.00051   0.00051  -0.00000
    D6        3.14097   0.00002   0.00000   0.00062   0.00062   3.14159
    D7       -3.14121  -0.00000   0.00000  -0.00038  -0.00038  -3.14159
    D8        0.00027   0.00000   0.00000  -0.00027  -0.00027   0.00000
    D9       -0.00122   0.00003   0.00000   0.00122   0.00122   0.00000
   D10        3.14030  -0.00000   0.00000   0.00129   0.00129   3.14159
   D11        0.00018   0.00001   0.00000  -0.00018  -0.00018  -0.00000
   D12        3.14128  -0.00000   0.00000   0.00031   0.00031   3.14159
   D13        0.00091  -0.00004   0.00000  -0.00091  -0.00091   0.00000
   D14        3.14121  -0.00001   0.00000   0.00038   0.00038   3.14159
   D15       -3.14024  -0.00002   0.00000  -0.00135  -0.00135  -3.14159
   D16        0.00006   0.00001   0.00000  -0.00006  -0.00006   0.00000
   D17       -0.00074   0.00003   0.00000   0.00074   0.00074  -0.00000
   D18        3.14096   0.00003   0.00000   0.00063   0.00063  -3.14159
   D19       -3.14094  -0.00001   0.00000  -0.00065  -0.00065  -3.14159
   D20        0.00076  -0.00001   0.00000  -0.00076  -0.00075   0.00000
         Item               Value     Threshold  Converged?
 Maximum Force            0.000041     0.000450     YES
 RMS     Force            0.000019     0.000300     YES
 Maximum Displacement     0.001539     0.001800     YES
 RMS     Displacement     0.000498     0.001200     YES
 Predicted change in Energy=-1.484885D-07
 Optimization completed.
    -- Stationary point found.
                           ----------------------------
                           !   Optimized Parameters   !
                           ! (Angstroms and Degrees)  !
 --------------------------                            --------------------------
 ! Name  Definition              Value          Derivative Info.                !
 --------------------------------------------------------------------------------
 ! R1    R(1,2)                  1.4379         -DE/DX =    0.0                 !
 ! R2    R(1,6)                  1.3961         -DE/DX =    0.0                 !
 ! R3    R(1,7)                  1.0925         -DE/DX =    0.0                 !
 ! R4    R(2,3)                  1.3288         -DE/DX =    0.0                 !
 ! R5    R(2,8)                  1.0879         -DE/DX =    0.0                 !
 ! R6    R(3,4)                  1.3289         -DE/DX =    0.0                 !
 ! R7    R(4,5)                  1.4378         -DE/DX =    0.0                 !
 ! R8    R(4,9)                  1.0879         -DE/DX =    0.0                 !
 ! R9    R(5,6)                  1.3962         -DE/DX =    0.0                 !
 ! R10   R(5,10)                 1.0925         -DE/DX =    0.0                 !
 ! R11   R(6,11)                 1.0895         -DE/DX =    0.0                 !
 ! A1    A(2,1,6)              121.7092         -DE/DX =    0.0                 !
 ! A2    A(2,1,7)              115.5542         -DE/DX =    0.0                 !
 ! A3    A(6,1,7)              122.7366         -DE/DX =    0.0                 !
 ! A4    A(1,2,3)              103.9647         -DE/DX =    0.0                 !
 ! A5    A(1,2,8)              124.5475         -DE/DX =    0.0                 !
 ! A6    A(3,2,8)              131.4878         -DE/DX =    0.0                 !
 ! A7    A(2,3,4)              147.3938         -DE/DX =    0.0                 !
 ! A8    A(3,4,5)              103.9617         -DE/DX =    0.0                 !
 ! A9    A(3,4,9)              131.473          -DE/DX =    0.0                 !
 ! A10   A(5,4,9)              124.5652         -DE/DX =    0.0                 !
 ! A11   A(4,5,6)              121.7119         -DE/DX =    0.0                 !
 ! A12   A(4,5,10)             115.546          -DE/DX =    0.0                 !
 ! A13   A(6,5,10)             122.742          -DE/DX =    0.0                 !
 ! A14   A(1,6,5)              121.2586         -DE/DX =    0.0                 !
 ! A15   A(1,6,11)             119.3773         -DE/DX =    0.0                 !
 ! A16   A(5,6,11)             119.3641         -DE/DX =    0.0                 !
 ! D1    D(6,1,2,3)              0.0685         -DE/DX =    0.0                 !
 ! D2    D(6,1,2,8)           -179.928          -DE/DX =    0.0                 !
 ! D3    D(7,1,2,3)            180.0208         -DE/DX =    0.0                 !
 ! D4    D(7,1,2,8)              0.0242         -DE/DX =    0.0                 !
 ! D5    D(2,1,6,5)             -0.0294         -DE/DX =    0.0                 !
 ! D6    D(2,1,6,11)           179.9645         -DE/DX =    0.0                 !
 ! D7    D(7,1,6,5)           -179.9782         -DE/DX =    0.0                 !
 ! D8    D(7,1,6,11)             0.0157         -DE/DX =    0.0                 !
 ! D9    D(1,2,3,4)             -0.0701         -DE/DX =    0.0                 !
 ! D10   D(8,2,3,4)            179.926          -DE/DX =    0.0                 !
 ! D11   D(2,3,4,5)              0.0103         -DE/DX =    0.0                 !
 ! D12   D(2,3,4,9)            179.9824         -DE/DX =    0.0                 !
 ! D13   D(3,4,5,6)              0.0522         -DE/DX =    0.0                 !
 ! D14   D(3,4,5,10)           179.9782         -DE/DX =    0.0                 !
 ! D15   D(9,4,5,6)           -179.9224         -DE/DX =    0.0                 !
 ! D16   D(9,4,5,10)             0.0036         -DE/DX =    0.0                 !
 ! D17   D(4,5,6,1)             -0.0422         -DE/DX =    0.0                 !
 ! D18   D(4,5,6,11)          -180.0361         -DE/DX =    0.0                 !
 ! D19   D(10,5,6,1)          -179.9628         -DE/DX =    0.0                 !
 ! D20   D(10,5,6,11)            0.0433         -DE/DX =    0.0                 !
 --------------------------------------------------------------------------------
 GradGradGradGradGradGradGradGradGradGradGradGradGradGradGradGradGradGrad

 Leave Link  103 at Sat Nov  5 23:19:03 2016, MaxMem=   524288000 cpu:               0.1 elap:               0.0
 (Enter /home/ubuntu/g16/l9999.exe)

 ----------------------------------------------------------------------

 Electric dipole moment (input orientation):
 (Debye = 10**-18 statcoulomb cm , SI units = C m)
                  (au)            (Debye)         (10**-30 SI)
   Tot        0.486699D+00      0.123707D+01      0.412641D+01
   x          0.485025D+00      0.123281D+01      0.411222D+01
   y          0.371186D-01      0.943460D-01      0.314704D+00
   z          0.157602D-01      0.400584D-01      0.133620D+00

 Dipole polarizability, Alpha (input orientation).
 (esu units = cm**3 , SI units = C**2 m**2 J**-1)
 Alpha(0;0):
               (au)            (10**-24 esu)      (10**-40 SI)
   iso        0.589540D+02      0.873608D+01      0.972020D+01
   aniso      0.365229D+02      0.541214D+01      0.602181D+01
   xx         0.662510D+02      0.981738D+01      0.109233D+02
   yx        -0.694478D+00     -0.102911D+00     -0.114504D+00
   yy         0.690561D+02      0.102331D+02      0.113858D+02
   zx        -0.325538D+00     -0.482397D-01     -0.536739D-01
   zy         0.146642D+02      0.217301D+01      0.241780D+01
   zz         0.415549D+02      0.615780D+01      0.685148D+01

 ----------------------------------------------------------------------

 Dipole orientation:
     6          2.60253414         -2.39747253         -3.13001902
     6          2.65570694         -2.49459912         -0.41510552
     6          1.53350850         -0.36164935          0.28966721
     6          0.41194027          1.77163967         -0.41539493
     6          0.46448023          1.67368551         -3.13025419
     6          1.53324505         -0.36214296         -4.42413131
     1          3.45132939         -4.01283801         -4.09576180
     1          3.46662830         -4.03338772          0.68076412
     1         -0.39855783          3.31048557          0.68074104
     1         -0.38517643          3.28856973         -4.09603031
     1          1.53286848         -0.36220707         -6.48304947

 Electric dipole moment (dipole orientation):
 (Debye = 10**-18 statcoulomb cm , SI units = C m)
                  (au)            (Debye)         (10**-30 SI)
   Tot        0.486699D+00      0.123707D+01      0.412641D+01
   x          0.000000D+00      0.000000D+00      0.000000D+00
   y          0.000000D+00      0.000000D+00      0.000000D+00
   z          0.486699D+00      0.123707D+01      0.412641D+01

 Dipole polarizability, Alpha (dipole orientation).
 (esu units = cm**3 , SI units = C**2 m**2 J**-1)
 Alpha(0;0):
               (au)            (10**-24 esu)      (10**-40 SI)
   iso        0.589540D+02      0.873608D+01      0.972020D+01
   aniso      0.365229D+02      0.541214D+01      0.602181D+01
   xx         0.439199D+02      0.650826D+01      0.724142D+01
   yx        -0.165844D+02     -0.245756D+01     -0.273440D+01
   yy         0.667548D+02      0.989205D+01      0.110064D+02
   zx         0.354998D-02      0.526052D-03      0.585312D-03
   zy         0.183507D-02      0.271929D-03      0.302562D-03
   zz         0.661872D+02      0.980794D+01      0.109128D+02

 ----------------------------------------------------------------------
 1\1\GINC-LC06-2-7\Freq\UB3LYP\Aug-CC-pVDZ\C6H5(1+)\UBUNTU\05-Nov-2016\
 0\\#P Geom=AllCheck Guess=TCheck SCRF=Check GenChk UB3LYP/Aug-CC-pVDZ 
 Freq\\s-Ph+_UB3LYP-aug-cc-pVDZ\\1,1\C,-1.5048834806,-1.489251237,-1.32
 93437134\C,-0.0682995129,-1.4328612885,-1.306942971\C,0.1976971064,-0.
 23835021,-0.7891482817\C,-0.2797940283,0.8994164173,-0.2958581495\C,-1
 .7066228171,0.7362596419,-0.3661332868\C,-2.288146727,-0.4288401525,-0
 .8697637137\H,-1.9341687424,-2.4112927034,-1.7283178176\H,0.5858771358
 ,-2.2299298489,-1.6537073038\H,0.222006555,1.7849640659,0.0882422337\H
 ,-2.2959374207,1.5801287866,0.0002165651\H,-3.3739380682,-0.5119534715
 ,-0.9048435611\\Version=ES64L-G16RevA.03\State=1-A\HF=-231.2822169\S2=
 0.\S2-1=0.\S2A=0.\RMSD=3.092e-09\RMSF=3.429e-05\ZeroPoint=0.0844251\Th
 ermal=0.089323\Dipole=0.4850255,0.0371186,0.0157602\DipoleDeriv=0.2755
 512,0.095128,0.0411231,-0.1297951,-0.0589906,0.0018152,-0.0571578,0.00
 14754,-0.0624616,-0.2464416,-0.2440336,-0.105637,0.0541193,-0.2703071,
 -0.1358256,0.0236683,-0.1352924,-0.0159096,0.2037956,-0.0480658,-0.020
 9699,-0.0479587,0.7248725,0.2424314,-0.0211746,0.2419178,0.2708775,-0.
 2824035,0.250857,0.1093211,-0.0474406,-0.2397691,-0.1225491,-0.0197092
 ,-0.1223578,-0.010298,0.2601871,-0.0459058,-0.0203818,0.1790649,-0.046
 162,0.0070001,0.0778538,0.0074219,-0.0600253,0.0656127,0.0197223,0.008
 4288,0.0196625,-0.1644607,-0.0597337,0.0085373,-0.0600074,-0.051844,0.
 0842783,-0.0131433,-0.0056016,0.066988,0.1745683,0.009786,0.029159,0.0
 099001,0.1559583,0.2198528,-0.0574288,-0.0249066,-0.0660973,0.2910132,
 0.0321121,-0.0283397,0.0321355,0.2311266,0.2002654,0.0413628,0.0179164
 ,0.0500215,0.3075629,0.0391951,0.021345,0.0391575,0.2341181,0.096415,0
 .0004452,0.0002146,-0.0796157,0.1643237,0.0054861,-0.0347348,0.0053684
 ,0.1540539,0.1228869,0.0010619,0.0004929,0.0010512,0.1173488,-0.019717
 8,0.0005527,-0.019719,0.1544041\Polar=66.2509683,-0.6944776,69.0561446
 ,-0.3255378,14.6642085,41.5549097\Quadrupole=2.7501419,3.5637867,-6.31
 39286,-0.2342963,-0.1116999,5.2723948\PG=C01 [X(C6H5)]\NImag=0\\0.5486
 6402,0.01763101,0.60922907,0.00721818,0.21309011,0.20940958,-0.2357147
 9,-0.05756766,-0.02470506,0.48642523,0.05450697,-0.08874469,-0.0145616
 8,-0.11705906,0.70453850,0.02389937,-0.01438573,-0.06167797,-0.0513463
 1,0.27176326,0.19622339,-0.01863071,-0.02663189,-0.01157669,-0.0839886
 5,-0.05193197,-0.02245786,0.26497066,-0.11606940,0.02498067,0.01130518
 ,0.01411527,-0.37943077,-0.15185054,-0.04979728,0.77728391,-0.05023756
 ,0.01122047,0.00409040,0.00616281,-0.15176599,-0.09526367,-0.02174847,
 0.31582378,0.18575139,-0.04883377,0.03858088,0.01677618,0.07351302,0.0
 2217077,0.00948412,-0.10055859,0.03877941,0.01689355,0.45404337,0.0295
 8769,-0.00072422,-0.00596524,-0.00157803,-0.04997270,-0.02311935,0.104
 82700,-0.36542104,-0.14568202,0.06074769,0.73191041,0.01282553,-0.0059
 9133,0.01042048,-0.00073160,-0.02314029,-0.00652529,0.04549604,-0.1456
 3257,-0.09258362,0.02623758,0.28336510,0.20115425,0.05520384,-0.005248
 62,-0.00231593,-0.03547511,-0.03456642,-0.01489218,-0.04265065,0.10491
 596,0.04540638,-0.23241819,-0.07576345,-0.03275263,0.55904266,0.025915
 77,-0.06407472,-0.03437415,-0.04356444,-0.01203404,-0.01078628,0.01547
 938,0.04530149,0.01993330,0.03630864,-0.09157177,-0.01568589,-0.039258
 31,0.60036907,0.01117791,-0.03436030,0.00028474,-0.01884477,-0.0108081
 8,0.00836443,0.00676196,0.01995253,0.00779952,0.01584775,-0.01567789,-
 0.06219213,-0.01737108,0.20936894,0.20785707,-0.18213177,0.11302199,0.
 04902541,-0.03733572,0.00923809,0.00403822,-0.02937821,0.00358209,0.00
 157596,-0.02477501,-0.01892602,-0.00817677,-0.15200303,-0.09495162,-0.
 04101823,0.75676397,0.06999962,-0.23742146,-0.07475792,0.04982379,0.03
 268414,0.01248394,0.00358070,-0.06411300,-0.02757437,-0.05950683,0.022
 07632,0.00795984,-0.05193039,-0.26283912,-0.08566606,0.00748530,0.5785
 8605,0.03033694,-0.07480603,-0.09720598,0.02163179,0.01256885,0.009113
 69,0.00156943,-0.02763007,-0.01229751,-0.02577758,0.00800373,0.0071646
 3,-0.02231970,-0.08560343,-0.10184862,0.00271953,0.19063487,0.22052960
 ,-0.09126108,-0.09770437,-0.04224998,-0.02151626,-0.02491632,-0.010760
 60,-0.00483045,0.00345049,0.00150797,0.00337276,0.00161811,0.00068952,
 -0.00179069,0.00126944,0.00053882,0.01115972,0.01478376,0.00639765,0.1
 0111013,-0.09551114,-0.25455910,-0.09649335,0.00542759,0.00202626,-0.0
 0351227,0.00118230,-0.00058032,-0.00089124,-0.00228226,-0.00061473,0.0
 0014541,0.00261573,-0.00074474,-0.00044598,-0.01035616,-0.00971114,-0.
 00663303,0.10017990,0.26444270,-0.04130423,-0.09651305,-0.07335383,0.0
 0239390,-0.00347827,0.00860722,0.00053307,-0.00088326,0.00108829,-0.00
 098132,0.00011261,-0.00088776,0.00110217,-0.00045023,0.00009795,-0.004
 49374,-0.00661924,0.00275879,0.04331150,0.10543441,0.06644258,-0.01240
 440,0.02147590,0.00934302,-0.14628519,0.13741729,0.05980552,0.00844996
 ,-0.01171661,-0.00509266,-0.00180267,-0.00437500,-0.00189853,-0.001859
 76,-0.00020608,-0.00009432,-0.00324505,-0.00062869,-0.00025961,0.00233
 370,-0.00012344,-0.00006676,0.15501458,-0.00531344,0.00785246,-0.00064
 163,0.13952579,-0.20743471,-0.08102863,0.01362950,-0.01690413,-0.00811
 971,-0.00349859,-0.00174738,0.00124284,-0.00062906,0.00003319,0.002426
 93,-0.00146045,0.00239914,-0.00141812,-0.00010098,-0.00005456,0.002695
 71,-0.14216603,0.21532852,-0.00229817,-0.00069650,0.00905429,0.0607275
 6,-0.08098322,-0.05635659,0.00592382,-0.00810735,-0.00173817,-0.001511
 70,0.00123557,-0.00407061,-0.00027479,0.00244100,-0.00449417,-0.000627
 69,-0.00142303,0.00504260,-0.00006008,0.00269249,-0.00509566,-0.061883
 31,0.08744349,0.05226909,-0.00192791,-0.00025578,-0.00011240,-0.003184
 41,0.00407286,0.00176786,0.00800427,0.01608370,0.00697209,-0.09976082,
 -0.11554311,-0.05012364,-0.00897512,-0.02402644,-0.01041597,-0.0034775
 8,-0.00018412,-0.00007478,-0.00028591,0.00009113,0.00004102,0.00043099
 ,0.00039674,0.00017206,0.10721417,0.00016436,0.00009201,0.00245168,0.0
 0319751,-0.00057830,0.00174320,-0.00926349,-0.01653622,-0.00794137,-0.
 11764544,-0.24674597,-0.09784980,0.00276198,0.00496924,-0.00190017,0.0
 0064623,0.00259027,-0.00133774,0.00023178,0.00024323,-0.00128608,-0.00
 027377,0.00023074,-0.00141282,0.11980526,0.25571712,0.00007636,0.00246
 275,-0.00448546,0.00137684,0.00172836,-0.00385841,-0.00402982,-0.00796
 116,-0.00166436,-0.05105591,-0.09783546,-0.06356757,0.00121783,-0.0019
 0135,0.00852115,0.00029360,-0.00132531,0.00508680,0.00010974,-0.001286
 07,0.00264883,-0.00011404,-0.00141340,0.00287517,0.05196442,0.10472897
 ,0.05966976,-0.00108055,-0.00129224,-0.00054648,0.00314856,-0.00104221
 ,-0.00045365,-0.00390199,-0.00390850,-0.00168772,-0.02437796,0.0210717
 2,0.00915506,-0.13114800,0.12302145,0.05340451,0.01129729,-0.01110770,
 -0.00481859,0.00100912,-0.00099573,-0.00043410,-0.00022891,-0.00022133
 ,-0.00009790,0.00225911,0.00028257,0.00012070,0.14237797,-0.00263709,-
 0.00135553,-0.00070243,0.00284618,-0.00042373,0.00022140,-0.00163699,-
 0.00135852,-0.00122266,-0.00926352,0.00444260,-0.00245874,0.12082725,-
 0.22078140,-0.08212314,0.01403097,-0.00982345,-0.00670856,0.00125614,-
 0.00058277,-0.00024065,-0.00008000,0.00019578,-0.00130846,0.00030520,0
 .00000699,0.00272140,-0.12587465,0.22949977,-0.00111369,-0.00068641,-0
 .00000388,0.00124685,0.00020184,-0.00085265,-0.00072409,-0.00124136,0.
 00093727,-0.00401890,-0.00247726,0.00904799,0.05246389,-0.08215401,-0.
 06724640,0.00606865,-0.00663934,0.00273660,0.00054785,-0.00023915,-0.0
 0013673,-0.00003108,-0.00130758,0.00264010,0.00013166,0.00272297,-0.00
 508374,-0.05466691,0.09057293,0.06012199,-0.01188288,-0.00200921,-0.00
 085627,0.00041331,0.00211000,0.00091553,0.00251435,0.00056487,0.000247
 64,0.00159786,-0.00166660,-0.00072055,-0.00792595,0.00001221,0.0000134
 2,-0.34687461,-0.02231545,-0.00940508,0.00069896,-0.00022791,-0.000101
 51,-0.00040326,-0.00016216,-0.00006979,-0.00029678,0.00009302,0.000040
 29,0.00064536,0.00022651,0.00009576,0.36151364,0.02172565,0.00472551,0
 .00064943,0.00483305,-0.00062997,-0.00152900,0.00056275,-0.00322207,-0
 .00378017,-0.00439074,-0.00163153,-0.00195457,-0.02372468,0.00137280,-
 0.00076669,-0.02231041,-0.05442775,-0.00707047,-0.00006795,0.00013516,
 0.00122806,0.00067644,0.00010095,0.00011882,-0.00074544,0.00001088,0.0
 0008126,0.00006661,0.00018025,0.00124736,0.02337473,0.05338577,0.00941
 936,0.00066603,0.00346763,0.00208800,-0.00152468,0.00222585,0.00025259
 ,-0.00377519,0.00388045,-0.00189375,-0.00195980,0.00203963,-0.01026395
 ,-0.00078788,0.00285645,-0.00940494,-0.00707338,-0.04108060,-0.0000323
 9,0.00122879,-0.00216968,0.00029176,0.00012010,-0.00012606,-0.00032231
 ,0.00008114,-0.00014217,0.00002508,0.00124891,-0.00216054,0.00984055,0
 .01177596,0.03120905\\-0.00000871,0.00000326,0.00005989,-0.00003534,0.
 00001108,-0.00006768,0.00003804,-0.00002979,0.00001434,-0.00007666,0.0
 0004129,0.00006850,-0.00001888,-0.00000062,-0.00009834,0.00001236,-0.0
 0003348,0.00000237,0.00001460,-0.00001404,0.00000313,0.00000318,0.0000
 0768,-0.00000461,0.00002707,-0.00001244,0.00000333,0.00002774,0.000014
 54,0.00001414,0.00001660,0.00001253,0.00000493\\\@


 HE WHO LOVES TO READ, AND KNOWS HOW TO REFLECT,
 HAS LAID BY A PERPETUAL FEAST FOR HIS OLD AGE.
 -- UNCLE ESEK, "SCRIBNER'S MONTHLY", SEPT. 1880
 Job cpu time:       0 days  0 hours 37 minutes 42.5 seconds.
 Elapsed time:       0 days  0 hours  5 minutes 23.7 seconds.
 File lengths (MBytes):  RWF=     68 Int=      0 D2E=      0 Chk=      5 Scr=      1
 Normal termination of Gaussian 16 at Sat Nov  5 23:19:03 2016.
