 Entering Gaussian System, Link 0=/home/ubuntu/g16/g16
 Input=t-4-MeOC6H3_UB3LYP-aug-cc-pVDZ-Opt.gjf
 Output=t-4-MeOC6H3_UB3LYP-aug-cc-pVDZ-Opt.log
 Initial command:
 /home/ubuntu/g16/l1.exe "/home/ubuntu/g16/Gau-29644.inp" -scrdir="/home/ubuntu/g16/"
 Entering Link 1 = /home/ubuntu/g16/l1.exe PID=     29646.
  
 Copyright (c) 1988,1990,1992,1993,1995,1998,2003,2009,2016,
            Gaussian, Inc.  All Rights Reserved.
  
 This is part of the Gaussian(R) 16 program.  It is based on
 the Gaussian(R) 09 system (copyright 2009, Gaussian, Inc.),
 the Gaussian(R) 03 system (copyright 2003, Gaussian, Inc.),
 the Gaussian(R) 98 system (copyright 1998, Gaussian, Inc.),
 the Gaussian(R) 94 system (copyright 1995, Gaussian, Inc.),
 the Gaussian 92(TM) system (copyright 1992, Gaussian, Inc.),
 the Gaussian 90(TM) system (copyright 1990, Gaussian, Inc.),
 the Gaussian 88(TM) system (copyright 1988, Gaussian, Inc.),
 the Gaussian 86(TM) system (copyright 1986, Carnegie Mellon
 University), and the Gaussian 82(TM) system (copyright 1983,
 Carnegie Mellon University). Gaussian is a federally registered
 trademark of Gaussian, Inc.
  
 This software contains proprietary and confidential information,
 including trade secrets, belonging to Gaussian, Inc.
  
 This software is provided under written license and may be
 used, copied, transmitted, or stored only in accord with that
 written license.
  
 The following legend is applicable only to US Government
 contracts under FAR:
  
                    RESTRICTED RIGHTS LEGEND
  
 Use, reproduction and disclosure by the US Government is
 subject to restrictions as set forth in subparagraphs (a)
 and (c) of the Commercial Computer Software - Restricted
 Rights clause in FAR 52.227-19.
  
 Gaussian, Inc.
 340 Quinnipiac St., Bldg. 40, Wallingford CT 06492
  
  
 ---------------------------------------------------------------
 Warning -- This program may not be used in any manner that
 competes with the business of Gaussian, Inc. or will provide
 assistance to any competitor of Gaussian, Inc.  The licensee
 of this program is prohibited from giving any competitor of
 Gaussian, Inc. access to this program.  By using this program,
 the user acknowledges that Gaussian, Inc. is engaged in the
 business of creating and licensing software in the field of
 computational chemistry and represents and warrants to the
 licensee that it is not a competitor of Gaussian, Inc. and that
 it will not use this program in any manner prohibited above.
 ---------------------------------------------------------------
  

 Cite this work as:
 Gaussian 16, Revision A.03,
 M. J. Frisch, G. W. Trucks, H. B. Schlegel, G. E. Scuseria, 
 M. A. Robb, J. R. Cheeseman, G. Scalmani, V. Barone, 
 G. A. Petersson, H. Nakatsuji, X. Li, M. Caricato, A. V. Marenich, 
 J. Bloino, B. G. Janesko, R. Gomperts, B. Mennucci, H. P. Hratchian, 
 J. V. Ortiz, A. F. Izmaylov, J. L. Sonnenberg, D. Williams-Young, 
 F. Ding, F. Lipparini, F. Egidi, J. Goings, B. Peng, A. Petrone, 
 T. Henderson, D. Ranasinghe, V. G. Zakrzewski, J. Gao, N. Rega, 
 G. Zheng, W. Liang, M. Hada, M. Ehara, K. Toyota, R. Fukuda, 
 J. Hasegawa, M. Ishida, T. Nakajima, Y. Honda, O. Kitao, H. Nakai, 
 T. Vreven, K. Throssell, J. A. Montgomery, Jr., J. E. Peralta, 
 F. Ogliaro, M. J. Bearpark, J. J. Heyd, E. N. Brothers, K. N. Kudin, 
 V. N. Staroverov, T. A. Keith, R. Kobayashi, J. Normand, 
 K. Raghavachari, A. P. Rendell, J. C. Burant, S. S. Iyengar, 
 J. Tomasi, M. Cossi, J. M. Millam, M. Klene, C. Adamo, R. Cammi, 
 J. W. Ochterski, R. L. Martin, K. Morokuma, O. Farkas, 
 J. B. Foresman, and D. J. Fox, Gaussian, Inc., Wallingford CT, 2016.
 
 ******************************************
 Gaussian 16:  ES64L-G16RevA.03 25-Dec-2016
                26-Jun-2020 
 ******************************************
 %chk=t-4-MeOC6H3_UB3LYP-aug-cc-pVDZ-Opt.chk
 %mem=500MW
 %nproc=7
 Will use up to    7 processors via shared memory.
 ----------------------------------------------------------------------
 #p opt=(maxcycles=777) freq ub3lyp/aug-cc-pVDZ pop=(Bonding,AllOrbital
 s,mk,no,nboread)
 ----------------------------------------------------------------------
 1/6=777,18=20,19=15,26=3,38=1/1,3;
 2/9=110,12=2,17=6,18=5,40=1/2;
 3/5=16,7=10,11=2,25=1,30=1,71=1,74=-5,116=2/1,2,3;
 4//1;
 5/5=2,38=5/2;
 6/7=2,8=2,9=2,10=2,15=8,20=1,22=-1,27=20,28=1,31=1,40=2,96=-1/1,2,7;
 7//1,2,3,16;
 1/6=777,18=20,19=15,26=3/3(2);
 2/9=110/2;
 99//99;
 2/9=110/2;
 3/5=16,7=10,11=2,25=1,30=1,71=1,74=-5,116=2/1,2,3;
 4/5=5,16=3,69=1/1;
 5/5=2,38=5/2;
 7//1,2,3,16;
 1/6=777,18=20,19=15,26=3/3(-5);
 2/9=110/2;
 6/7=2,8=2,9=2,10=2,15=8,19=2,20=1,22=-1,27=20,28=1,31=1,40=2,96=-1/1,2,7;
 99/9=1/99;
 Leave Link    1 at Fri Jun 26 23:52:57 2020, MaxMem=   524288000 cpu:               0.3 elap:               0.1
 (Enter /home/ubuntu/g16/l101.exe)
 ------------------------------
 t-4-MeOC6H3_UB3LYP-aug-cc-pVDZ
 ------------------------------
 Symbolic Z-matrix:
 Charge =  0 Multiplicity = 3
 C                    -1.33195  -0.35003  -0.06043 
 C                    -0.78369   0.77668  -0.02309 
 C                     0.56057   1.07381  -0.10712 
 C                     1.32343  -0.11968  -0.25106 
 O                     2.67349   0.08125  -0.34215 
 C                     3.5271   -1.04963  -0.476 
 C                     0.71488  -1.39976  -0.29428 
 C                    -0.68463  -1.56851  -0.19671 
 H                     1.04353   2.04768  -0.07326 
 H                     4.54459  -0.65018  -0.52774 
 H                     3.3075   -1.60882  -1.39892 
 H                     3.43814  -1.72041   0.39281 
 H                     1.33025  -2.28995  -0.40485 
 H                    -1.15004  -2.55184  -0.23161 
 
 ITRead=  0  0  0  0  0  0  0  0  0  0  0  0  0  0
 MicOpt= -1 -1 -1 -1 -1 -1 -1 -1 -1 -1 -1 -1 -1 -1
 NAtoms=     14 NQM=       14 NQMF=       0 NMMI=      0 NMMIF=      0
                NMic=       0 NMicF=      0.
                    Isotopes and Nuclear Properties:
 (Nuclear quadrupole moments (NQMom) in fm**2, nuclear magnetic moments (NMagM)
  in nuclear magnetons)

  Atom         1           2           3           4           5           6           7           8           9          10
 IAtWgt=          12          12          12          12          16          12          12          12           1           1
 AtmWgt=  12.0000000  12.0000000  12.0000000  12.0000000  15.9949146  12.0000000  12.0000000  12.0000000   1.0078250   1.0078250
 NucSpn=           0           0           0           0           0           0           0           0           1           1
 AtZEff=  -0.0000000  -0.0000000  -0.0000000  -0.0000000  -0.0000000  -0.0000000  -0.0000000  -0.0000000  -0.0000000  -0.0000000
 NQMom=    0.0000000   0.0000000   0.0000000   0.0000000   0.0000000   0.0000000   0.0000000   0.0000000   0.0000000   0.0000000
 NMagM=    0.0000000   0.0000000   0.0000000   0.0000000   0.0000000   0.0000000   0.0000000   0.0000000   2.7928460   2.7928460
 AtZNuc=   6.0000000   6.0000000   6.0000000   6.0000000   8.0000000   6.0000000   6.0000000   6.0000000   1.0000000   1.0000000

  Atom        11          12          13          14
 IAtWgt=           1           1           1           1
 AtmWgt=   1.0078250   1.0078250   1.0078250   1.0078250
 NucSpn=           1           1           1           1
 AtZEff=  -0.0000000  -0.0000000  -0.0000000  -0.0000000
 NQMom=    0.0000000   0.0000000   0.0000000   0.0000000
 NMagM=    2.7928460   2.7928460   2.7928460   2.7928460
 AtZNuc=   1.0000000   1.0000000   1.0000000   1.0000000
 Leave Link  101 at Fri Jun 26 23:52:57 2020, MaxMem=   524288000 cpu:               1.3 elap:               0.2
 (Enter /home/ubuntu/g16/l103.exe)

 GradGradGradGradGradGradGradGradGradGradGradGradGradGradGradGradGradGrad
 Berny optimization.
 Initialization pass.
                           ----------------------------
                           !    Initial Parameters    !
                           ! (Angstroms and Degrees)  !
 --------------------------                            --------------------------
 ! Name  Definition              Value          Derivative Info.                !
 --------------------------------------------------------------------------------
 ! R1    R(1,2)                  1.2536         estimate D2E/DX2                !
 ! R2    R(1,8)                  1.3865         estimate D2E/DX2                !
 ! R3    R(2,3)                  1.3793         estimate D2E/DX2                !
 ! R4    R(3,4)                  1.4238         estimate D2E/DX2                !
 ! R5    R(3,9)                  1.0876         estimate D2E/DX2                !
 ! R6    R(4,5)                  1.368          estimate D2E/DX2                !
 ! R7    R(4,7)                  1.418          estimate D2E/DX2                !
 ! R8    R(5,6)                  1.4232         estimate D2E/DX2                !
 ! R9    R(6,10)                 1.0943         estimate D2E/DX2                !
 ! R10   R(6,11)                 1.1012         estimate D2E/DX2                !
 ! R11   R(6,12)                 1.1012         estimate D2E/DX2                !
 ! R12   R(7,8)                  1.413          estimate D2E/DX2                !
 ! R13   R(7,13)                 1.0878         estimate D2E/DX2                !
 ! R14   R(8,14)                 1.0885         estimate D2E/DX2                !
 ! A1    A(2,1,8)              126.0598         estimate D2E/DX2                !
 ! A2    A(1,2,3)              128.1749         estimate D2E/DX2                !
 ! A3    A(2,3,4)              110.3517         estimate D2E/DX2                !
 ! A4    A(2,3,9)              128.5946         estimate D2E/DX2                !
 ! A5    A(4,3,9)              121.0535         estimate D2E/DX2                !
 ! A6    A(3,4,5)              114.3556         estimate D2E/DX2                !
 ! A7    A(3,4,7)              121.9958         estimate D2E/DX2                !
 ! A8    A(5,4,7)              123.6486         estimate D2E/DX2                !
 ! A9    A(4,5,6)              118.7825         estimate D2E/DX2                !
 ! A10   A(5,6,10)             105.7879         estimate D2E/DX2                !
 ! A11   A(5,6,11)             111.2667         estimate D2E/DX2                !
 ! A12   A(5,6,12)             111.184          estimate D2E/DX2                !
 ! A13   A(10,6,11)            109.3382         estimate D2E/DX2                !
 ! A14   A(10,6,12)            109.5578         estimate D2E/DX2                !
 ! A15   A(11,6,12)            109.6207         estimate D2E/DX2                !
 ! A16   A(4,7,8)              122.0562         estimate D2E/DX2                !
 ! A17   A(4,7,13)             119.9371         estimate D2E/DX2                !
 ! A18   A(8,7,13)             118.0067         estimate D2E/DX2                !
 ! A19   A(1,8,7)              111.3616         estimate D2E/DX2                !
 ! A20   A(1,8,14)             126.6888         estimate D2E/DX2                !
 ! A21   A(7,8,14)             121.9494         estimate D2E/DX2                !
 ! D1    D(8,1,2,3)              0.0586         estimate D2E/DX2                !
 ! D2    D(2,1,8,7)             -0.0562         estimate D2E/DX2                !
 ! D3    D(2,1,8,14)          -179.9151         estimate D2E/DX2                !
 ! D4    D(1,2,3,4)             -0.0322         estimate D2E/DX2                !
 ! D5    D(1,2,3,9)           -179.8462         estimate D2E/DX2                !
 ! D6    D(2,3,4,5)           -179.9913         estimate D2E/DX2                !
 ! D7    D(2,3,4,7)              0.0146         estimate D2E/DX2                !
 ! D8    D(9,3,4,5)             -0.161          estimate D2E/DX2                !
 ! D9    D(9,3,4,7)            179.8449         estimate D2E/DX2                !
 ! D10   D(3,4,5,6)            179.4181         estimate D2E/DX2                !
 ! D11   D(7,4,5,6)             -0.588          estimate D2E/DX2                !
 ! D12   D(3,4,7,8)             -0.0227         estimate D2E/DX2                !
 ! D13   D(3,4,7,13)          -179.9756         estimate D2E/DX2                !
 ! D14   D(5,4,7,8)            179.9837         estimate D2E/DX2                !
 ! D15   D(5,4,7,13)             0.0309         estimate D2E/DX2                !
 ! D16   D(4,5,6,10)          -179.8984         estimate D2E/DX2                !
 ! D17   D(4,5,6,11)            61.4606         estimate D2E/DX2                !
 ! D18   D(4,5,6,12)           -61.0384         estimate D2E/DX2                !
 ! D19   D(4,7,8,1)              0.0385         estimate D2E/DX2                !
 ! D20   D(4,7,8,14)           179.9051         estimate D2E/DX2                !
 ! D21   D(13,7,8,1)           179.9922         estimate D2E/DX2                !
 ! D22   D(13,7,8,14)           -0.1411         estimate D2E/DX2                !
 --------------------------------------------------------------------------------
 Trust Radius=3.00D-01 FncErr=1.00D-07 GrdErr=1.00D-06 EigMax=2.50D+02 EigMin=1.00D-04
 Number of steps in this run=    100 maximum allowed number of steps=    100.
 GradGradGradGradGradGradGradGradGradGradGradGradGradGradGradGradGradGrad

 Leave Link  103 at Fri Jun 26 23:52:57 2020, MaxMem=   524288000 cpu:               0.0 elap:               0.0
 (Enter /home/ubuntu/g16/l202.exe)
                          Input orientation:                          
 ---------------------------------------------------------------------
 Center     Atomic      Atomic             Coordinates (Angstroms)
 Number     Number       Type             X           Y           Z
 ---------------------------------------------------------------------
      1          6           0       -1.331950   -0.350030   -0.060430
      2          6           0       -0.783690    0.776680   -0.023090
      3          6           0        0.560570    1.073810   -0.107120
      4          6           0        1.323430   -0.119680   -0.251060
      5          8           0        2.673490    0.081250   -0.342150
      6          6           0        3.527100   -1.049630   -0.476000
      7          6           0        0.714880   -1.399760   -0.294280
      8          6           0       -0.684630   -1.568510   -0.196710
      9          1           0        1.043530    2.047680   -0.073260
     10          1           0        4.544590   -0.650180   -0.527740
     11          1           0        3.307500   -1.608820   -1.398920
     12          1           0        3.438140   -1.720410    0.392810
     13          1           0        1.330250   -2.289950   -0.404850
     14          1           0       -1.150040   -2.551840   -0.231610
 ---------------------------------------------------------------------
                    Distance matrix (angstroms):
                    1          2          3          4          5
     1  C    0.000000
     2  C    1.253578   0.000000
     3  C    2.368783   1.379269   0.000000
     4  C    2.672161   2.301171   1.423760   0.000000
     5  O    4.038430   3.540835   2.346241   1.367966   0.000000
     6  C    4.926713   4.703557   3.666793   2.402408   1.423185
     7  C    2.312170   2.656341   2.485435   1.418029   2.455979
     8  C    1.386466   2.353693   2.922397   2.476765   3.744306
     9  H    3.375216   2.226363   1.087575   2.192580   2.568252
    10  H    5.902727   5.539058   4.361362   3.276256   2.017535
    11  H    4.990051   4.931668   4.051034   2.733433   2.091666
    12  H    4.983686   4.922629   4.042030   2.729268   2.090654
    13  H    3.311982   3.744156   3.463514   2.175723   2.725952
    14  H    2.215933   3.355106   4.010863   3.468982   4.643788
                    6          7          8          9         10
     6  C    0.000000
     7  C    2.839753   0.000000
     8  C    4.252753   1.413020   0.000000
     9  H    3.990445   3.470116   4.009814   0.000000
    10  H    1.094314   3.909354   5.319554   4.443245   0.000000
    11  H    1.101226   2.825883   4.169417   4.500325   1.791183
    12  H    1.101222   2.826845   4.167474   4.488862   1.793610
    13  H    2.523808   1.087816   2.150242   4.359724   3.610530
    14  H    4.918536   2.192976   1.088468   5.098275   6.011058
                   11         12         13         14
    11  H    0.000000
    12  H    1.799949   0.000000
    13  H    2.315520   2.324616   0.000000
    14  H    4.703356   4.704527   2.500087   0.000000
 Stoichiometry    C7H6O(3)
 Framework group  C1[X(C7H6O)]
 Deg. of freedom    36
 Full point group                 C1      NOp   1
 Largest Abelian subgroup         C1      NOp   1
 Largest concise Abelian subgroup C1      NOp   1
                         Standard orientation:                         
 ---------------------------------------------------------------------
 Center     Atomic      Atomic             Coordinates (Angstroms)
 Number     Number       Type             X           Y           Z
 ---------------------------------------------------------------------
      1          6           0        2.294743    0.170326    0.002040
      2          6           0        1.857417   -1.004495    0.002492
      3          6           0        0.543862   -1.425150    0.000003
      4          6           0       -0.334820   -0.304881   -0.002646
      5          8           0       -1.663562   -0.630104   -0.005043
      6          6           0       -2.625714    0.418524    0.004867
      7          6           0        0.147740    1.028514   -0.002867
      8          6           0        1.529048    1.326179    0.000002
      9          1           0        0.156986   -2.441585    0.002657
     10          1           0       -3.602926   -0.073995    0.002673
     11          1           0       -2.534846    1.052460   -0.890994
     12          1           0       -2.528006    1.039712    0.908896
     13          1           0       -0.553927    1.859780   -0.004526
     14          1           0        1.897552    2.350368   -0.001702
 ---------------------------------------------------------------------
 Rotational constants (GHZ):           5.1077098           1.7076905           1.2904831
 Leave Link  202 at Fri Jun 26 23:52:57 2020, MaxMem=   524288000 cpu:               0.0 elap:               0.0
 (Enter /home/ubuntu/g16/l301.exe)
 Standard basis: Aug-CC-pVDZ (5D, 7F)
 Ernie: Thresh=  0.10000D-02 Tol=  0.10000D-05 Strict=F.
 Ernie:  16 primitive shells out of 242 were deleted.
 There are   254 symmetry adapted cartesian basis functions of A   symmetry.
 There are   238 symmetry adapted basis functions of A   symmetry.
   238 basis functions,   410 primitive gaussians,   254 cartesian basis functions
    29 alpha electrons       27 beta electrons
       nuclear repulsion energy       326.0695330758 Hartrees.
 IExCor=  402 DFT=T Ex+Corr=B3LYP ExCW=0 ScaHFX=  0.200000
 ScaDFX=  0.800000  0.720000  1.000000  0.810000 ScalE2=  1.000000  1.000000
 IRadAn=      5 IRanWt=     -1 IRanGd=            0 ICorTp=0 IEmpDi=  4
 NAtoms=   14 NActive=   14 NUniq=   14 SFac= 1.00D+00 NAtFMM=   60 NAOKFM=F Big=F
 Integral buffers will be    131072 words long.
 Raffenetti 2 integral format.
 Two-electron integral symmetry is turned on.
 Leave Link  301 at Fri Jun 26 23:52:57 2020, MaxMem=   524288000 cpu:               0.2 elap:               0.0
 (Enter /home/ubuntu/g16/l302.exe)
 NPDir=0 NMtPBC=     1 NCelOv=     1 NCel=       1 NClECP=     1 NCelD=      1
         NCelK=      1 NCelE2=     1 NClLst=     1 CellRange=     0.0.
 One-electron integrals computed using PRISM.
 One-electron integral symmetry used in STVInt
 NBasis=   238 RedAO= T EigKep=  3.83D-06  NBF=   238
 NBsUse=   238 1.00D-06 EigRej= -1.00D+00 NBFU=   238
 Precomputing XC quadrature grid using
 IXCGrd= 4 IRadAn=           5 IRanWt=          -1 IRanGd=           0 AccXCQ= 0.00D+00.
 Generated NRdTot=       0 NPtTot=           0 NUsed=           0 NTot=          32
 NSgBfM=   254   254   254   254   254 MxSgAt=    14 MxSgA2=    14.
 Leave Link  302 at Fri Jun 26 23:52:57 2020, MaxMem=   524288000 cpu:               2.0 elap:               0.3
 (Enter /home/ubuntu/g16/l303.exe)
 DipDrv:  MaxL=1.
 Leave Link  303 at Fri Jun 26 23:52:57 2020, MaxMem=   524288000 cpu:               0.3 elap:               0.0
 (Enter /home/ubuntu/g16/l401.exe)
 ExpMin= 2.97D-02 ExpMax= 1.17D+04 ExpMxC= 4.01D+02 IAcc=3 IRadAn=         5 AccDes= 0.00D+00
 Harris functional with IExCor=  402 and IRadAn=       5 diagonalized for initial guess.
 HarFok:  IExCor=  402 AccDes= 0.00D+00 IRadAn=         5 IDoV= 1 UseB2=F ITyADJ=14
 ICtDFT=  3500011 ScaDFX=  1.000000  1.000000  1.000000  1.000000
 FoFCou: FMM=F IPFlag=           0 FMFlag=      100000 FMFlg1=           0
         NFxFlg=           0 DoJE=T BraDBF=F KetDBF=T FulRan=T
         wScrn=  0.000000 ICntrl=       500 IOpCl=  0 I1Cent=   200000004 NGrid=           0
         NMat0=    1 NMatS0=      1 NMatT0=    0 NMatD0=    1 NMtDS0=    0 NMtDT0=    0
 Petite list used in FoFCou.
 Harris En= -345.375685557769    
 JPrj=0 DoOrth=F DoCkMO=F.
 Initial guess <Sx>= 0.0000 <Sy>= 0.0000 <Sz>= 1.0000 <S**2>= 2.0000 S= 1.0000
 Leave Link  401 at Fri Jun 26 23:52:59 2020, MaxMem=   524288000 cpu:              14.3 elap:               2.1
 (Enter /home/ubuntu/g16/l502.exe)
 Integral symmetry usage will be decided dynamically.
 UHF open shell SCF:
 Using DIIS extrapolation, IDIIS=  1040.
 NGot=   524288000 LenX=   524154720 LenY=   524089763
 Requested convergence on RMS density matrix=1.00D-08 within 128 cycles.
 Requested convergence on MAX density matrix=1.00D-06.
 Requested convergence on             energy=1.00D-06.
 No special actions if energy rises.
 Fock matrices will be formed incrementally for  20 cycles.

 Cycle   1  Pass 1  IDiag  1:
 FoFJK:  IHMeth= 1 ICntrl=       0 DoSepK=F KAlg= 0 I1Cent=           0 FoldK=F
 IRaf= 990000000 NMat=       1 IRICut=       1 DoRegI=T DoRafI=F ISym2E= 0 IDoP0=0 IntGTp=1.
 FoFCou: FMM=F IPFlag=           0 FMFlag=      100000 FMFlg1=           0
         NFxFlg=           0 DoJE=F BraDBF=F KetDBF=F FulRan=T
         wScrn=  0.000000 ICntrl=         0 IOpCl=  1 I1Cent=           0 NGrid=           0
         NMat0=    1 NMatS0=      1 NMatT0=    0 NMatD0=    1 NMtDS0=    0 NMtDT0=    0
 Symmetry not used in FoFCou.
 E= -345.129017485716    
 DIIS: error= 2.37D-02 at cycle   1 NSaved=   1.
 NSaved= 1 IEnMin= 1 EnMin= -345.129017485716     IErMin= 1 ErrMin= 2.37D-02
 ErrMax= 2.37D-02  0.00D+00 EMaxC= 1.00D-01 BMatC= 7.66D-01 BMatP= 7.66D-01
 IDIUse=3 WtCom= 7.63D-01 WtEn= 2.37D-01
 Coeff-Com:  0.100D+01
 Coeff-En:   0.100D+01
 Coeff:      0.100D+01
 Gap=    -0.001 Goal=   None    Shift=    0.000
 Gap=    -0.141 Goal=   None    Shift=    0.000
 GapD=   -0.141 DampG=0.250 DampE=0.500 DampFc=0.2500 IDamp=-1.
 Damping current iteration by 2.50D-01
 RMSDP=3.87D-02 MaxDP=1.75D+00              OVMax= 9.79D-01

 Cycle   2  Pass 1  IDiag  1:
 RMSU=  8.27D-03    CP:  9.33D-01
 E= -345.192019851615     Delta-E=       -0.063002365898 Rises=F Damp=T
 DIIS: error= 7.70D-03 at cycle   2 NSaved=   2.
 NSaved= 2 IEnMin= 2 EnMin= -345.192019851615     IErMin= 2 ErrMin= 7.70D-03
 ErrMax= 7.70D-03  0.00D+00 EMaxC= 1.00D-01 BMatC= 1.39D-01 BMatP= 7.66D-01
 IDIUse=3 WtCom= 9.23D-01 WtEn= 7.70D-02
 Coeff-Com: -0.155D+00 0.115D+01
 Coeff-En:   0.265D+00 0.735D+00
 Coeff:     -0.123D+00 0.112D+01
 Gap=     0.044 Goal=   None    Shift=    0.000
 Gap=     0.208 Goal=   None    Shift=    0.000
 RMSDP=2.18D-02 MaxDP=1.03D+00 DE=-6.30D-02 OVMax= 9.86D-01

 Cycle   3  Pass 1  IDiag  1:
 RMSU=  1.22D-02    CP:  6.97D-01  5.62D-01
 E= -345.248220724676     Delta-E=       -0.056200873061 Rises=F Damp=F
 DIIS: error= 2.55D-02 at cycle   3 NSaved=   3.
 NSaved= 3 IEnMin= 3 EnMin= -345.248220724676     IErMin= 2 ErrMin= 7.70D-03
 ErrMax= 2.55D-02  0.00D+00 EMaxC= 1.00D-01 BMatC= 3.68D-01 BMatP= 1.39D-01
 IDIUse=2 WtCom= 0.00D+00 WtEn= 1.00D+00
 Coeff-En:   0.000D+00 0.305D+00 0.695D+00
 Coeff:      0.000D+00 0.305D+00 0.695D+00
 Gap=     0.016 Goal=   None    Shift=    0.000
 Gap=    -0.092 Goal=   None    Shift=    0.000
 RMSDP=9.97D-03 MaxDP=3.29D-01 DE=-5.62D-02 OVMax= 8.09D-01

 Cycle   4  Pass 1  IDiag  1:
 RMSU=  8.59D-03    CP:  7.02D-01  7.79D-01  6.14D-01
 E= -344.867194971831     Delta-E=        0.381025752844 Rises=F Damp=F
 DIIS: error= 4.67D-02 at cycle   4 NSaved=   4.
 NSaved= 4 IEnMin= 3 EnMin= -345.248220724676     IErMin= 2 ErrMin= 7.70D-03
 ErrMax= 4.67D-02  0.00D+00 EMaxC= 1.00D-01 BMatC= 1.68D+00 BMatP= 1.39D-01
 IDIUse=2 WtCom= 0.00D+00 WtEn= 1.00D+00
 Coeff-En:   0.000D+00 0.000D+00 0.721D+00 0.279D+00
 Coeff:      0.000D+00 0.000D+00 0.721D+00 0.279D+00
 Gap=     0.086 Goal=   None    Shift=    0.000
 Gap=     0.031 Goal=   None    Shift=    0.000
 RMSDP=6.94D-03 MaxDP=2.51D-01 DE= 3.81D-01 OVMax= 3.33D-01

 Cycle   5  Pass 1  IDiag  1:
 RMSU=  3.25D-03    CP:  7.09D-01  5.67D-01  7.85D-01  3.63D-01
 E= -345.329378823014     Delta-E=       -0.462183851183 Rises=F Damp=F
 DIIS: error= 1.67D-02 at cycle   5 NSaved=   5.
 NSaved= 5 IEnMin= 5 EnMin= -345.329378823014     IErMin= 2 ErrMin= 7.70D-03
 ErrMax= 1.67D-02  0.00D+00 EMaxC= 1.00D-01 BMatC= 2.10D-01 BMatP= 1.39D-01
 IDIUse=2 WtCom= 0.00D+00 WtEn= 1.00D+00
 Coeff-En:   0.000D+00 0.000D+00 0.343D+00 0.000D+00 0.657D+00
 Coeff:      0.000D+00 0.000D+00 0.343D+00 0.000D+00 0.657D+00
 Gap=     0.141 Goal=   None    Shift=    0.000
 Gap=     0.022 Goal=   None    Shift=    0.000
 RMSDP=2.65D-03 MaxDP=1.19D-01 DE=-4.62D-01 OVMax= 1.03D-01

 Cycle   6  Pass 1  IDiag  1:
 RMSU=  2.12D-03    CP:  7.05D-01  5.13D-01  8.21D-01  2.01D-01  8.93D-01
 E= -345.394277033112     Delta-E=       -0.064898210098 Rises=F Damp=F
 DIIS: error= 1.69D-03 at cycle   6 NSaved=   6.
 NSaved= 6 IEnMin= 6 EnMin= -345.394277033112     IErMin= 6 ErrMin= 1.69D-03
 ErrMax= 1.69D-03  0.00D+00 EMaxC= 1.00D-01 BMatC= 4.55D-03 BMatP= 1.39D-01
 IDIUse=3 WtCom= 9.83D-01 WtEn= 1.69D-02
 Coeff-Com: -0.373D-01 0.108D+00 0.829D-01-0.431D-01 0.210D+00 0.680D+00
 Coeff-En:   0.000D+00 0.000D+00 0.000D+00 0.000D+00 0.000D+00 0.100D+01
 Coeff:     -0.367D-01 0.106D+00 0.815D-01-0.424D-01 0.206D+00 0.685D+00
 Gap=     0.142 Goal=   None    Shift=    0.000
 Gap=     0.059 Goal=   None    Shift=    0.000
 RMSDP=9.86D-04 MaxDP=4.67D-02 DE=-6.49D-02 OVMax= 2.35D-02

 Cycle   7  Pass 1  IDiag  1:
 RMSU=  8.85D-04    CP:  7.06D-01  5.06D-01  7.94D-01  2.29D-01  9.23D-01
                    CP:  9.64D-01
 E= -345.394961406542     Delta-E=       -0.000684373429 Rises=F Damp=F
 DIIS: error= 1.87D-03 at cycle   7 NSaved=   7.
 NSaved= 7 IEnMin= 7 EnMin= -345.394961406542     IErMin= 6 ErrMin= 1.69D-03
 ErrMax= 1.87D-03  0.00D+00 EMaxC= 1.00D-01 BMatC= 3.43D-03 BMatP= 4.55D-03
 IDIUse=3 WtCom= 9.83D-01 WtEn= 1.69D-02
 Coeff-Com: -0.602D-02 0.351D-01 0.118D-01-0.320D-02-0.497D-01 0.287D+00
 Coeff-Com:  0.725D+00
 Coeff-En:   0.000D+00 0.000D+00 0.000D+00 0.000D+00 0.000D+00 0.305D+00
 Coeff-En:   0.695D+00
 Coeff:     -0.592D-02 0.345D-01 0.116D-01-0.315D-02-0.489D-01 0.287D+00
 Coeff:      0.725D+00
 Gap=     0.149 Goal=   None    Shift=    0.000
 Gap=     0.071 Goal=   None    Shift=    0.000
 RMSDP=5.02D-04 MaxDP=1.90D-02 DE=-6.84D-04 OVMax= 1.54D-02

 Cycle   8  Pass 1  IDiag  1:
 RMSU=  3.36D-04    CP:  7.05D-01  5.04D-01  7.91D-01  2.19D-01  9.03D-01
                    CP:  1.13D+00  1.05D+00
 E= -345.395913048905     Delta-E=       -0.000951642363 Rises=F Damp=F
 DIIS: error= 8.63D-04 at cycle   8 NSaved=   8.
 NSaved= 8 IEnMin= 8 EnMin= -345.395913048905     IErMin= 8 ErrMin= 8.63D-04
 ErrMax= 8.63D-04  0.00D+00 EMaxC= 1.00D-01 BMatC= 5.12D-04 BMatP= 3.43D-03
 IDIUse=3 WtCom= 9.91D-01 WtEn= 8.63D-03
 Coeff-Com: -0.385D-02 0.156D-01 0.472D-02 0.721D-02-0.814D-01-0.333D-01
 Coeff-Com:  0.386D+00 0.705D+00
 Coeff-En:   0.000D+00 0.000D+00 0.000D+00 0.000D+00 0.000D+00 0.000D+00
 Coeff-En:   0.000D+00 0.100D+01
 Coeff:     -0.382D-02 0.155D-01 0.468D-02 0.715D-02-0.807D-01-0.330D-01
 Coeff:      0.383D+00 0.707D+00
 Gap=     0.150 Goal=   None    Shift=    0.000
 Gap=     0.075 Goal=   None    Shift=    0.000
 RMSDP=2.16D-04 MaxDP=7.86D-03 DE=-9.52D-04 OVMax= 6.80D-03

 Cycle   9  Pass 1  IDiag  1:
 RMSU=  1.43D-04    CP:  7.05D-01  5.01D-01  7.85D-01  2.21D-01  8.95D-01
                    CP:  1.17D+00  1.17D+00  9.11D-01
 E= -345.396054749220     Delta-E=       -0.000141700316 Rises=F Damp=F
 DIIS: error= 4.44D-04 at cycle   9 NSaved=   9.
 NSaved= 9 IEnMin= 9 EnMin= -345.396054749220     IErMin= 9 ErrMin= 4.44D-04
 ErrMax= 4.44D-04  0.00D+00 EMaxC= 1.00D-01 BMatC= 1.27D-04 BMatP= 5.12D-04
 IDIUse=3 WtCom= 9.96D-01 WtEn= 4.44D-03
 Coeff-Com: -0.374D-02 0.849D-02 0.477D-02 0.223D-02-0.351D-01-0.678D-01
 Coeff-Com:  0.796D-01 0.395D+00 0.616D+00
 Coeff-En:   0.000D+00 0.000D+00 0.000D+00 0.000D+00 0.000D+00 0.000D+00
 Coeff-En:   0.000D+00 0.000D+00 0.100D+01
 Coeff:     -0.372D-02 0.845D-02 0.475D-02 0.222D-02-0.350D-01-0.675D-01
 Coeff:      0.792D-01 0.394D+00 0.618D+00
 Gap=     0.152 Goal=   None    Shift=    0.000
 Gap=     0.076 Goal=   None    Shift=    0.000
 RMSDP=8.62D-05 MaxDP=4.61D-03 DE=-1.42D-04 OVMax= 4.29D-03

 Cycle  10  Pass 1  IDiag  1:
 RMSU=  6.85D-05    CP:  7.06D-01  5.01D-01  7.85D-01  2.19D-01  8.94D-01
                    CP:  1.18D+00  1.19D+00  9.94D-01  8.89D-01
 E= -345.396094720562     Delta-E=       -0.000039971341 Rises=F Damp=F
 DIIS: error= 2.94D-04 at cycle  10 NSaved=  10.
 NSaved=10 IEnMin=10 EnMin= -345.396094720562     IErMin=10 ErrMin= 2.94D-04
 ErrMax= 2.94D-04  0.00D+00 EMaxC= 1.00D-01 BMatC= 3.48D-05 BMatP= 1.27D-04
 IDIUse=3 WtCom= 9.97D-01 WtEn= 2.94D-03
 Coeff-Com: -0.115D-02 0.166D-02 0.173D-02-0.105D-04-0.866D-02-0.385D-01
 Coeff-Com: -0.384D-01 0.921D-01 0.376D+00 0.615D+00
 Coeff-En:   0.000D+00 0.000D+00 0.000D+00 0.000D+00 0.000D+00 0.000D+00
 Coeff-En:   0.000D+00 0.000D+00 0.000D+00 0.100D+01
 Coeff:     -0.115D-02 0.166D-02 0.172D-02-0.104D-04-0.864D-02-0.383D-01
 Coeff:     -0.382D-01 0.918D-01 0.375D+00 0.617D+00
 Gap=     0.152 Goal=   None    Shift=    0.000
 Gap=     0.077 Goal=   None    Shift=    0.000
 RMSDP=5.03D-05 MaxDP=1.86D-03 DE=-4.00D-05 OVMax= 2.95D-03

 Cycle  11  Pass 1  IDiag  1:
 RMSU=  3.43D-05    CP:  7.06D-01  5.00D-01  7.85D-01  2.18D-01  8.94D-01
                    CP:  1.19D+00  1.21D+00  1.03D+00  1.02D+00  1.05D+00
 E= -345.396108102902     Delta-E=       -0.000013382340 Rises=F Damp=F
 DIIS: error= 9.84D-05 at cycle  11 NSaved=  11.
 NSaved=11 IEnMin=11 EnMin= -345.396108102902     IErMin=11 ErrMin= 9.84D-05
 ErrMax= 9.84D-05  0.00D+00 EMaxC= 1.00D-01 BMatC= 3.98D-06 BMatP= 3.48D-05
 IDIUse=1 WtCom= 1.00D+00 WtEn= 0.00D+00
 Coeff-Com:  0.749D-03-0.125D-02-0.919D-03 0.541D-03-0.910D-03-0.849D-03
 Coeff-Com: -0.315D-01-0.347D-01 0.347D-01 0.267D+00 0.767D+00
 Coeff:      0.749D-03-0.125D-02-0.919D-03 0.541D-03-0.910D-03-0.849D-03
 Coeff:     -0.315D-01-0.347D-01 0.347D-01 0.267D+00 0.767D+00
 Gap=     0.152 Goal=   None    Shift=    0.000
 Gap=     0.077 Goal=   None    Shift=    0.000
 RMSDP=3.18D-05 MaxDP=1.24D-03 DE=-1.34D-05 OVMax= 1.58D-03

 Cycle  12  Pass 1  IDiag  1:
 RMSU=  1.90D-05    CP:  7.06D-01  5.00D-01  7.84D-01  2.18D-01  8.92D-01
                    CP:  1.20D+00  1.22D+00  1.05D+00  1.08D+00  1.23D+00
                    CP:  1.23D+00
 E= -345.396110964863     Delta-E=       -0.000002861961 Rises=F Damp=F
 DIIS: error= 4.67D-05 at cycle  12 NSaved=  12.
 NSaved=12 IEnMin=12 EnMin= -345.396110964863     IErMin=12 ErrMin= 4.67D-05
 ErrMax= 4.67D-05  0.00D+00 EMaxC= 1.00D-01 BMatC= 1.26D-06 BMatP= 3.98D-06
 IDIUse=1 WtCom= 1.00D+00 WtEn= 0.00D+00
 Coeff-Com: -0.377D-03 0.713D-03 0.984D-04-0.422D-03 0.427D-02 0.741D-02
 Coeff-Com: -0.284D-02-0.378D-01-0.790D-01-0.339D-01 0.289D+00 0.853D+00
 Coeff:     -0.377D-03 0.713D-03 0.984D-04-0.422D-03 0.427D-02 0.741D-02
 Coeff:     -0.284D-02-0.378D-01-0.790D-01-0.339D-01 0.289D+00 0.853D+00
 Gap=     0.152 Goal=   None    Shift=    0.000
 Gap=     0.077 Goal=   None    Shift=    0.000
 RMSDP=2.14D-05 MaxDP=5.73D-04 DE=-2.86D-06 OVMax= 1.22D-03

 Cycle  13  Pass 1  IDiag  1:
 RMSU=  9.57D-06    CP:  7.06D-01  5.00D-01  7.84D-01  2.18D-01  8.93D-01
                    CP:  1.20D+00  1.22D+00  1.06D+00  1.12D+00  1.37D+00
                    CP:  1.60D+00  1.34D+00
 E= -345.396112159838     Delta-E=       -0.000001194975 Rises=F Damp=F
 DIIS: error= 3.53D-05 at cycle  13 NSaved=  13.
 NSaved=13 IEnMin=13 EnMin= -345.396112159838     IErMin=13 ErrMin= 3.53D-05
 ErrMax= 3.53D-05  0.00D+00 EMaxC= 1.00D-01 BMatC= 4.76D-07 BMatP= 1.26D-06
 IDIUse=1 WtCom= 1.00D+00 WtEn= 0.00D+00
 Coeff-Com: -0.584D-03 0.919D-03 0.215D-03-0.496D-03 0.318D-02 0.445D-02
 Coeff-Com:  0.564D-02-0.173D-01-0.637D-01-0.100D+00-0.308D-01 0.513D+00
 Coeff-Com:  0.686D+00
 Coeff:     -0.584D-03 0.919D-03 0.215D-03-0.496D-03 0.318D-02 0.445D-02
 Coeff:      0.564D-02-0.173D-01-0.637D-01-0.100D+00-0.308D-01 0.513D+00
 Coeff:      0.686D+00
 Gap=     0.152 Goal=   None    Shift=    0.000
 Gap=     0.077 Goal=   None    Shift=    0.000
 RMSDP=1.39D-05 MaxDP=3.84D-04 DE=-1.19D-06 OVMax= 9.22D-04

 Cycle  14  Pass 1  IDiag  1:
 RMSU=  4.69D-06    CP:  7.06D-01  5.00D-01  7.84D-01  2.18D-01  8.93D-01
                    CP:  1.20D+00  1.22D+00  1.06D+00  1.15D+00  1.47D+00
                    CP:  1.80D+00  1.68D+00  1.27D+00
 E= -345.396112657728     Delta-E=       -0.000000497890 Rises=F Damp=F
 DIIS: error= 1.70D-05 at cycle  14 NSaved=  14.
 NSaved=14 IEnMin=14 EnMin= -345.396112657728     IErMin=14 ErrMin= 1.70D-05
 ErrMax= 1.70D-05  0.00D+00 EMaxC= 1.00D-01 BMatC= 1.01D-07 BMatP= 4.76D-07
 IDIUse=1 WtCom= 1.00D+00 WtEn= 0.00D+00
 Coeff-Com: -0.830D-04 0.126D-03-0.189D-04 0.712D-04-0.776D-03-0.455D-03
 Coeff-Com:  0.253D-02 0.874D-02 0.869D-02-0.338D-01-0.133D+00-0.144D+00
 Coeff-Com:  0.243D+00 0.105D+01
 Coeff:     -0.830D-04 0.126D-03-0.189D-04 0.712D-04-0.776D-03-0.455D-03
 Coeff:      0.253D-02 0.874D-02 0.869D-02-0.338D-01-0.133D+00-0.144D+00
 Coeff:      0.243D+00 0.105D+01
 Gap=     0.152 Goal=   None    Shift=    0.000
 Gap=     0.077 Goal=   None    Shift=    0.000
 RMSDP=1.20D-05 MaxDP=2.82D-04 DE=-4.98D-07 OVMax= 9.51D-04

 Cycle  15  Pass 1  IDiag  1:
 RMSU=  2.67D-06    CP:  7.06D-01  5.00D-01  7.84D-01  2.18D-01  8.93D-01
                    CP:  1.20D+00  1.22D+00  1.06D+00  1.17D+00  1.55D+00
                    CP:  1.98D+00  1.96D+00  1.66D+00  1.56D+00
 E= -345.396112865695     Delta-E=       -0.000000207966 Rises=F Damp=F
 DIIS: error= 5.45D-06 at cycle  15 NSaved=  15.
 NSaved=15 IEnMin=15 EnMin= -345.396112865695     IErMin=15 ErrMin= 5.45D-06
 ErrMax= 5.45D-06  0.00D+00 EMaxC= 1.00D-01 BMatC= 3.20D-08 BMatP= 1.01D-07
 IDIUse=1 WtCom= 1.00D+00 WtEn= 0.00D+00
 Coeff-Com:  0.693D-04-0.130D-03-0.875D-04 0.119D-03-0.972D-03-0.989D-03
 Coeff-Com:  0.848D-04 0.723D-02 0.167D-01 0.188D-02-0.606D-01-0.174D+00
 Coeff-Com: -0.846D-02 0.552D+00 0.666D+00
 Coeff:      0.693D-04-0.130D-03-0.875D-04 0.119D-03-0.972D-03-0.989D-03
 Coeff:      0.848D-04 0.723D-02 0.167D-01 0.188D-02-0.606D-01-0.174D+00
 Coeff:     -0.846D-02 0.552D+00 0.666D+00
 Gap=     0.152 Goal=   None    Shift=    0.000
 Gap=     0.077 Goal=   None    Shift=    0.000
 RMSDP=3.63D-06 MaxDP=1.01D-04 DE=-2.08D-07 OVMax= 3.75D-04

 Cycle  16  Pass 1  IDiag  1:
 RMSU=  1.18D-06    CP:  7.06D-01  5.00D-01  7.84D-01  2.18D-01  8.93D-01
                    CP:  1.20D+00  1.22D+00  1.07D+00  1.18D+00  1.57D+00
                    CP:  2.03D+00  2.04D+00  1.81D+00  1.71D+00  1.26D+00
 E= -345.396112899324     Delta-E=       -0.000000033629 Rises=F Damp=F
 DIIS: error= 3.18D-06 at cycle  16 NSaved=  16.
 NSaved=16 IEnMin=16 EnMin= -345.396112899324     IErMin=16 ErrMin= 3.18D-06
 ErrMax= 3.18D-06  0.00D+00 EMaxC= 1.00D-01 BMatC= 9.05D-09 BMatP= 3.20D-08
 IDIUse=1 WtCom= 1.00D+00 WtEn= 0.00D+00
 Coeff-Com:  0.320D-04-0.647D-04-0.134D-04 0.334D-05-0.673D-04-0.374D-03
 Coeff-Com: -0.367D-03 0.559D-03 0.443D-02 0.111D-01 0.117D-01-0.261D-01
 Coeff-Com: -0.718D-01-0.117D+00 0.326D+00 0.863D+00
 Coeff:      0.320D-04-0.647D-04-0.134D-04 0.334D-05-0.673D-04-0.374D-03
 Coeff:     -0.367D-03 0.559D-03 0.443D-02 0.111D-01 0.117D-01-0.261D-01
 Coeff:     -0.718D-01-0.117D+00 0.326D+00 0.863D+00
 Gap=     0.152 Goal=   None    Shift=    0.000
 Gap=     0.077 Goal=   None    Shift=    0.000
 RMSDP=1.96D-06 MaxDP=4.95D-05 DE=-3.36D-08 OVMax= 3.01D-04

 Cycle  17  Pass 1  IDiag  1:
 RMSU=  8.48D-07    CP:  7.06D-01  5.00D-01  7.84D-01  2.18D-01  8.93D-01
                    CP:  1.20D+00  1.22D+00  1.07D+00  1.18D+00  1.58D+00
                    CP:  2.06D+00  2.07D+00  1.87D+00  1.85D+00  1.49D+00
                    CP:  1.29D+00
 E= -345.396112914102     Delta-E=       -0.000000014778 Rises=F Damp=F
 DIIS: error= 1.45D-06 at cycle  17 NSaved=  17.
 NSaved=17 IEnMin=17 EnMin= -345.396112914102     IErMin=17 ErrMin= 1.45D-06
 ErrMax= 1.45D-06  0.00D+00 EMaxC= 1.00D-01 BMatC= 1.10D-09 BMatP= 9.05D-09
 IDIUse=1 WtCom= 1.00D+00 WtEn= 0.00D+00
 Coeff-Com: -0.202D-04 0.442D-04 0.187D-04-0.904D-05 0.111D-03 0.237D-03
 Coeff-Com:  0.344D-03-0.596D-03-0.313D-02-0.358D-02 0.157D-02 0.301D-01
 Coeff-Com:  0.279D-01-0.487D-01-0.160D+00-0.229D+00 0.138D+01
 Coeff:     -0.202D-04 0.442D-04 0.187D-04-0.904D-05 0.111D-03 0.237D-03
 Coeff:      0.344D-03-0.596D-03-0.313D-02-0.358D-02 0.157D-02 0.301D-01
 Coeff:      0.279D-01-0.487D-01-0.160D+00-0.229D+00 0.138D+01
 Gap=     0.152 Goal=   None    Shift=    0.000
 Gap=     0.077 Goal=   None    Shift=    0.000
 RMSDP=1.05D-06 MaxDP=3.82D-05 DE=-1.48D-08 OVMax= 2.30D-04

 Cycle  18  Pass 1  IDiag  1:
 RMSU=  5.19D-07    CP:  7.06D-01  5.00D-01  7.84D-01  2.18D-01  8.93D-01
                    CP:  1.20D+00  1.22D+00  1.07D+00  1.18D+00  1.58D+00
                    CP:  2.06D+00  2.08D+00  1.89D+00  1.87D+00  1.63D+00
                    CP:  1.65D+00  1.73D+00
 E= -345.396112920593     Delta-E=       -0.000000006491 Rises=F Damp=F
 DIIS: error= 9.26D-07 at cycle  18 NSaved=  18.
 NSaved=18 IEnMin=18 EnMin= -345.396112920593     IErMin=18 ErrMin= 9.26D-07
 ErrMax= 9.26D-07  0.00D+00 EMaxC= 1.00D-01 BMatC= 6.29D-10 BMatP= 1.10D-09
 IDIUse=1 WtCom= 1.00D+00 WtEn= 0.00D+00
 Coeff-Com: -0.342D-05 0.820D-05 0.306D-05 0.142D-06 0.203D-04 0.145D-03
 Coeff-Com: -0.303D-04-0.482D-03-0.192D-02-0.375D-02-0.877D-03 0.102D-01
 Coeff-Com:  0.218D-01 0.466D-01-0.149D+00-0.369D+00 0.229D+00 0.122D+01
 Coeff:     -0.342D-05 0.820D-05 0.306D-05 0.142D-06 0.203D-04 0.145D-03
 Coeff:     -0.303D-04-0.482D-03-0.192D-02-0.375D-02-0.877D-03 0.102D-01
 Coeff:      0.218D-01 0.466D-01-0.149D+00-0.369D+00 0.229D+00 0.122D+01
 Gap=     0.152 Goal=   None    Shift=    0.000
 Gap=     0.077 Goal=   None    Shift=    0.000
 RMSDP=8.90D-07 MaxDP=3.36D-05 DE=-6.49D-09 OVMax= 2.04D-04

 Cycle  19  Pass 1  IDiag  1:
 RMSU=  2.30D-07    CP:  7.06D-01  5.00D-01  7.84D-01  2.18D-01  8.93D-01
                    CP:  1.20D+00  1.22D+00  1.07D+00  1.18D+00  1.58D+00
                    CP:  2.06D+00  2.08D+00  1.89D+00  1.90D+00  1.72D+00
                    CP:  1.95D+00  2.44D+00  1.77D+00
 E= -345.396112923960     Delta-E=       -0.000000003367 Rises=F Damp=F
 DIIS: error= 4.64D-07 at cycle  19 NSaved=  19.
 NSaved=19 IEnMin=19 EnMin= -345.396112923960     IErMin=19 ErrMin= 4.64D-07
 ErrMax= 4.64D-07  0.00D+00 EMaxC= 1.00D-01 BMatC= 2.10D-10 BMatP= 6.29D-10
 IDIUse=1 WtCom= 1.00D+00 WtEn= 0.00D+00
 Coeff-Com:  0.459D-05-0.911D-05-0.232D-05-0.579D-07-0.201D-04 0.618D-05
 Coeff-Com: -0.125D-03-0.702D-04 0.235D-04-0.101D-02-0.172D-02-0.541D-02
 Coeff-Com:  0.186D-02 0.485D-01-0.206D-01-0.114D+00-0.482D+00 0.636D+00
 Coeff-Com:  0.938D+00
 Coeff:      0.459D-05-0.911D-05-0.232D-05-0.579D-07-0.201D-04 0.618D-05
 Coeff:     -0.125D-03-0.702D-04 0.235D-04-0.101D-02-0.172D-02-0.541D-02
 Coeff:      0.186D-02 0.485D-01-0.206D-01-0.114D+00-0.482D+00 0.636D+00
 Coeff:      0.938D+00
 Gap=     0.152 Goal=   None    Shift=    0.000
 Gap=     0.077 Goal=   None    Shift=    0.000
 RMSDP=6.28D-07 MaxDP=2.35D-05 DE=-3.37D-09 OVMax= 1.43D-04

 Cycle  20  Pass 1  IDiag  1:
 RMSU=  1.41D-07    CP:  7.06D-01  5.00D-01  7.84D-01  2.18D-01  8.93D-01
                    CP:  1.20D+00  1.22D+00  1.07D+00  1.18D+00  1.58D+00
                    CP:  2.06D+00  2.08D+00  1.89D+00  1.91D+00  1.78D+00
                    CP:  2.15D+00  2.93D+00  2.39D+00  1.35D+00
 E= -345.396112924999     Delta-E=       -0.000000001039 Rises=F Damp=F
 DIIS: error= 2.07D-07 at cycle  20 NSaved=  20.
 NSaved=20 IEnMin=20 EnMin= -345.396112924999     IErMin=20 ErrMin= 2.07D-07
 ErrMax= 2.07D-07  0.00D+00 EMaxC= 1.00D-01 BMatC= 3.45D-11 BMatP= 2.10D-10
 IDIUse=1 WtCom= 1.00D+00 WtEn= 0.00D+00
 Coeff-Com:  0.344D-05-0.506D-05-0.312D-05 0.174D-05-0.145D-04-0.247D-04
 Coeff-Com:  0.858D-05 0.128D-03 0.428D-03 0.456D-03-0.108D-02-0.289D-02
 Coeff-Com: -0.254D-02 0.885D-03 0.273D-01 0.544D-01-0.200D+00-0.117D+00
 Coeff-Com:  0.298D+00 0.941D+00
 Coeff:      0.344D-05-0.506D-05-0.312D-05 0.174D-05-0.145D-04-0.247D-04
 Coeff:      0.858D-05 0.128D-03 0.428D-03 0.456D-03-0.108D-02-0.289D-02
 Coeff:     -0.254D-02 0.885D-03 0.273D-01 0.544D-01-0.200D+00-0.117D+00
 Coeff:      0.298D+00 0.941D+00
 Gap=     0.152 Goal=   None    Shift=    0.000
 Gap=     0.077 Goal=   None    Shift=    0.000
 RMSDP=2.35D-07 MaxDP=8.45D-06 DE=-1.04D-09 OVMax= 5.17D-05

 Cycle  21  Pass 1  IDiag  1:
 Restarting incremental Fock formation.
 E= -345.396112925102     Delta-E=       -0.000000000103 Rises=F Damp=F
 DIIS: error= 4.38D-08 at cycle  21 NSaved=  20.
 NSaved=20 IEnMin=20 EnMin= -345.396112925102     IErMin=20 ErrMin= 4.38D-08
 ErrMax= 4.38D-08  0.00D+00 EMaxC= 1.00D-01 BMatC= 2.83D-12 BMatP= 3.45D-11
 IDIUse=1 WtCom= 1.00D+00 WtEn= 0.00D+00
 Coeff-Com: -0.246D-06 0.250D-06 0.121D-06 0.650D-06-0.822D-05 0.150D-04
 Coeff-Com:  0.420D-04 0.110D-03 0.206D-03 0.136D-04-0.426D-03-0.540D-03
 Coeff-Com: -0.439D-02 0.679D-02 0.200D-01 0.223D-01-0.681D-01-0.788D-01
 Coeff-Com:  0.560D-01 0.105D+01
 Coeff:     -0.246D-06 0.250D-06 0.121D-06 0.650D-06-0.822D-05 0.150D-04
 Coeff:      0.420D-04 0.110D-03 0.206D-03 0.136D-04-0.426D-03-0.540D-03
 Coeff:     -0.439D-02 0.679D-02 0.200D-01 0.223D-01-0.681D-01-0.788D-01
 Coeff:      0.560D-01 0.105D+01
 Gap=     0.152 Goal=   None    Shift=    0.000
 Gap=     0.077 Goal=   None    Shift=    0.000
 RMSDP=5.02D-08 MaxDP=1.52D-06 DE=-1.03D-10 OVMax= 9.61D-06

 Cycle  22  Pass 1  IDiag  1:
 RMSU=  5.01D-08    CP:  1.00D+00
 E= -345.396112925109     Delta-E=       -0.000000000007 Rises=F Damp=F
 DIIS: error= 1.80D-08 at cycle  22 NSaved=  20.
 NSaved=20 IEnMin=20 EnMin= -345.396112925109     IErMin=20 ErrMin= 1.80D-08
 ErrMax= 1.80D-08  0.00D+00 EMaxC= 1.00D-01 BMatC= 1.36D-13 BMatP= 2.83D-12
 IDIUse=1 WtCom= 1.00D+00 WtEn= 0.00D+00
 Coeff-Com: -0.211D-06-0.467D-09 0.802D-06 0.162D-05-0.271D-05-0.103D-04
 Coeff-Com: -0.230D-04 0.925D-06 0.133D-03 0.129D-03-0.265D-04-0.272D-03
 Coeff-Com: -0.133D-02-0.276D-02 0.144D-01 0.490D-02-0.238D-01-0.658D-01
 Coeff-Com:  0.403D-01 0.103D+01
 Coeff:     -0.211D-06-0.467D-09 0.802D-06 0.162D-05-0.271D-05-0.103D-04
 Coeff:     -0.230D-04 0.925D-06 0.133D-03 0.129D-03-0.265D-04-0.272D-03
 Coeff:     -0.133D-02-0.276D-02 0.144D-01 0.490D-02-0.238D-01-0.658D-01
 Coeff:      0.403D-01 0.103D+01
 Gap=     0.152 Goal=   None    Shift=    0.000
 Gap=     0.077 Goal=   None    Shift=    0.000
 RMSDP=1.04D-08 MaxDP=2.85D-07 DE=-7.05D-12 OVMax= 1.88D-06

 Cycle  23  Pass 1  IDiag  1:
 RMSU=  7.66D-09    CP:  1.00D+00  1.14D+00
 E= -345.396112925107     Delta-E=        0.000000000002 Rises=F Damp=F
 DIIS: error= 8.72D-09 at cycle  23 NSaved=  20.
 NSaved=20 IEnMin=19 EnMin= -345.396112925109     IErMin=20 ErrMin= 8.72D-09
 ErrMax= 8.72D-09  0.00D+00 EMaxC= 1.00D-01 BMatC= 2.42D-14 BMatP= 1.36D-13
 IDIUse=1 WtCom= 1.00D+00 WtEn= 0.00D+00
 Coeff-Com: -0.987D-08-0.994D-07 0.561D-06-0.909D-06-0.297D-05-0.101D-04
 Coeff-Com: -0.267D-04-0.258D-04 0.352D-04 0.135D-03 0.521D-03-0.799D-03
 Coeff-Com: -0.247D-02-0.202D-02 0.778D-02 0.694D-02-0.867D-02-0.105D+00
 Coeff-Com: -0.147D-01 0.112D+01
 Coeff:     -0.987D-08-0.994D-07 0.561D-06-0.909D-06-0.297D-05-0.101D-04
 Coeff:     -0.267D-04-0.258D-04 0.352D-04 0.135D-03 0.521D-03-0.799D-03
 Coeff:     -0.247D-02-0.202D-02 0.778D-02 0.694D-02-0.867D-02-0.105D+00
 Coeff:     -0.147D-01 0.112D+01
 Gap=     0.152 Goal=   None    Shift=    0.000
 Gap=     0.077 Goal=   None    Shift=    0.000
 RMSDP=4.42D-09 MaxDP=1.32D-07 DE= 2.05D-12 OVMax= 7.69D-07

 SCF Done:  E(UB3LYP) =  -345.396112925     A.U. after   23 cycles
            NFock= 23  Conv=0.44D-08     -V/T= 2.0051
 <Sx>= 0.0000 <Sy>= 0.0000 <Sz>= 1.0000 <S**2>= 2.0060 S= 1.0020
 <L.S>= 0.000000000000E+00
 KE= 3.436361168079D+02 PE=-1.455633372634D+03 EE= 4.405316098248D+02
 Annihilation of the first spin contaminant:
 S**2 before annihilation     2.0060,   after     2.0000
 Leave Link  502 at Fri Jun 26 23:56:10 2020, MaxMem=   524288000 cpu:            1331.4 elap:             190.2
 (Enter /home/ubuntu/g16/l601.exe)
 Copying SCF densities to generalized density rwf, IOpCl= 1 IROHF=0.

 **********************************************************************

            Population analysis using the SCF density.

 **********************************************************************

 Orbital symmetries:
 Alpha Orbitals:
       Occupied  (A) (A) (A) (A) (A) (A) (A) (A) (A) (A) (A) (A)
                 (A) (A) (A) (A) (A) (A) (A) (A) (A) (A) (A) (A)
                 (A) (A) (A) (A) (A)
       Virtual   (A) (A) (A) (A) (A) (A) (A) (A) (A) (A) (A) (A)
                 (A) (A) (A) (A) (A) (A) (A) (A) (A) (A) (A) (A)
                 (A) (A) (A) (A) (A) (A) (A) (A) (A) (A) (A) (A)
                 (A) (A) (A) (A) (A) (A) (A) (A) (A) (A) (A) (A)
                 (A) (A) (A) (A) (A) (A) (A) (A) (A) (A) (A) (A)
                 (A) (A) (A) (A) (A) (A) (A) (A) (A) (A) (A) (A)
                 (A) (A) (A) (A) (A) (A) (A) (A) (A) (A) (A) (A)
                 (A) (A) (A) (A) (A) (A) (A) (A) (A) (A) (A) (A)
                 (A) (A) (A) (A) (A) (A) (A) (A) (A) (A) (A) (A)
                 (A) (A) (A) (A) (A) (A) (A) (A) (A) (A) (A) (A)
                 (A) (A) (A) (A) (A) (A) (A) (A) (A) (A) (A) (A)
                 (A) (A) (A) (A) (A) (A) (A) (A) (A) (A) (A) (A)
                 (A) (A) (A) (A) (A) (A) (A) (A) (A) (A) (A) (A)
                 (A) (A) (A) (A) (A) (A) (A) (A) (A) (A) (A) (A)
                 (A) (A) (A) (A) (A) (A) (A) (A) (A) (A) (A) (A)
                 (A) (A) (A) (A) (A) (A) (A) (A) (A) (A) (A) (A)
                 (A) (A) (A) (A) (A) (A) (A) (A) (A) (A) (A) (A)
                 (A) (A) (A) (A) (A)
 Beta  Orbitals:
       Occupied  (A) (A) (A) (A) (A) (A) (A) (A) (A) (A) (A) (A)
                 (A) (A) (A) (A) (A) (A) (A) (A) (A) (A) (A) (A)
                 (A) (A) (A)
       Virtual   (A) (A) (A) (A) (A) (A) (A) (A) (A) (A) (A) (A)
                 (A) (A) (A) (A) (A) (A) (A) (A) (A) (A) (A) (A)
                 (A) (A) (A) (A) (A) (A) (A) (A) (A) (A) (A) (A)
                 (A) (A) (A) (A) (A) (A) (A) (A) (A) (A) (A) (A)
                 (A) (A) (A) (A) (A) (A) (A) (A) (A) (A) (A) (A)
                 (A) (A) (A) (A) (A) (A) (A) (A) (A) (A) (A) (A)
                 (A) (A) (A) (A) (A) (A) (A) (A) (A) (A) (A) (A)
                 (A) (A) (A) (A) (A) (A) (A) (A) (A) (A) (A) (A)
                 (A) (A) (A) (A) (A) (A) (A) (A) (A) (A) (A) (A)
                 (A) (A) (A) (A) (A) (A) (A) (A) (A) (A) (A) (A)
                 (A) (A) (A) (A) (A) (A) (A) (A) (A) (A) (A) (A)
                 (A) (A) (A) (A) (A) (A) (A) (A) (A) (A) (A) (A)
                 (A) (A) (A) (A) (A) (A) (A) (A) (A) (A) (A) (A)
                 (A) (A) (A) (A) (A) (A) (A) (A) (A) (A) (A) (A)
                 (A) (A) (A) (A) (A) (A) (A) (A) (A) (A) (A) (A)
                 (A) (A) (A) (A) (A) (A) (A) (A) (A) (A) (A) (A)
                 (A) (A) (A) (A) (A) (A) (A) (A) (A) (A) (A) (A)
                 (A) (A) (A) (A) (A) (A) (A)
 The electronic state is 3-A.
     Natural Orbital Coefficients:
                           1         2         3         4         5
     Eigenvalues --     2.00000   2.00000   2.00000   2.00000   2.00000
   1 1   C  1S          0.00013   0.00044  -0.00397  -0.00941   0.00270
   2        2S          0.00019  -0.00010  -0.00163  -0.00079  -0.00042
   3        3S          0.00733   0.00382   0.05253  -0.00002   0.02464
   4        4S         -0.02198   0.00096   0.00003  -0.01923   0.01300
   5        5PX        -0.00007  -0.00003   0.00034   0.00033  -0.00002
   6        5PY         0.00000   0.00001  -0.00029  -0.00034   0.00048
   7        5PZ         0.00000   0.00000   0.00000   0.00000   0.00000
   8        6PX        -0.00096  -0.00132  -0.01400  -0.00625   0.01676
   9        6PY         0.00509   0.00660   0.02756   0.02311  -0.03339
  10        6PZ        -0.00000  -0.00001  -0.00004  -0.00004   0.00006
  11        7PX         0.00034  -0.00560   0.00440   0.00077   0.00956
  12        7PY         0.00368   0.03086  -0.00555   0.00599  -0.02655
  13        7PZ         0.00002  -0.00001   0.00002   0.00000   0.00005
  14        8D 0        0.00009  -0.00007  -0.00017  -0.00014  -0.00006
  15        8D+1       -0.00000   0.00000   0.00000   0.00000   0.00000
  16        8D-1       -0.00000  -0.00000  -0.00000   0.00000  -0.00000
  17        8D+2        0.00005  -0.00014  -0.00017   0.00006  -0.00028
  18        8D-2       -0.00003  -0.00010  -0.00011   0.00021  -0.00017
  19        9D 0        0.00033  -0.00046   0.00002   0.00018  -0.00014
  20        9D+1        0.00000   0.00001   0.00000   0.00001  -0.00002
  21        9D-1       -0.00001  -0.00001  -0.00001  -0.00001  -0.00000
  22        9D+2        0.00021   0.00001   0.00209   0.00322  -0.00992
  23        9D-2       -0.00120  -0.00213  -0.00864  -0.00736   0.00514
  24 2   C  1S         -0.00021  -0.00011  -0.00553  -0.00291   0.01292
  25        2S          0.00021  -0.00019  -0.00156  -0.00061  -0.00021
  26        3S          0.00671  -0.00438   0.05027   0.03448   0.01079
  27        4S          0.01034  -0.00257   0.00008   0.02125   0.02198
  28        5PX        -0.00004   0.00000   0.00051   0.00003   0.00029
  29        5PY         0.00005  -0.00005   0.00001   0.00006  -0.00019
  30        5PZ         0.00000   0.00000   0.00000   0.00000   0.00000
  31        6PX        -0.00360   0.00195  -0.02423   0.00228  -0.05499
  32        6PY         0.00286   0.00877   0.00536   0.01081  -0.01162
  33        6PZ        -0.00003  -0.00001  -0.00009  -0.00000  -0.00008
  34        7PX         0.00355   0.02468  -0.00871   0.00216  -0.03222
  35        7PY         0.00935   0.01745  -0.01080   0.00020  -0.01867
  36        7PZ        -0.00003   0.00002  -0.00000   0.00000  -0.00005
  37        8D 0       -0.00000  -0.00005  -0.00020   0.00004   0.00056
  38        8D+1        0.00000   0.00000  -0.00000  -0.00000  -0.00000
  39        8D-1        0.00000  -0.00000  -0.00000   0.00000  -0.00000
  40        8D+2        0.00005   0.00012  -0.00019   0.00009  -0.00086
  41        8D-2        0.00018  -0.00019   0.00006   0.00019  -0.00068
  42        9D 0        0.00013   0.00030   0.00094  -0.00031  -0.00065
  43        9D+1        0.00001  -0.00000   0.00004  -0.00001   0.00004
  44        9D-1       -0.00002  -0.00001   0.00000  -0.00000  -0.00001
  45        9D+2        0.00189  -0.00023   0.00779  -0.00278   0.01196
  46        9D-2       -0.00119  -0.00240  -0.00515   0.00081  -0.01237
  47 3   C  1S          0.00380   0.00140   0.12455  -0.00484   0.98513
  48        2S          0.00009  -0.00004   0.00202  -0.00014   0.03809
  49        3S         -0.00716  -0.01918   0.00704   0.02907  -0.12847
  50        4S         -0.02178   0.03465   0.01598  -0.00381  -0.11930
  51        5PX         0.00032  -0.00000   0.00180  -0.00091   0.00086
  52        5PY        -0.00019   0.00012  -0.00150  -0.00026   0.00031
  53        5PZ         0.00000   0.00000   0.00001   0.00001   0.00001
  54        6PX        -0.00971   0.01151  -0.05236  -0.01331  -0.02833
  55        6PY        -0.00704  -0.01668   0.00335   0.00923  -0.05631
  56        6PZ         0.00006   0.00008  -0.00008  -0.00005  -0.00000
  57        7PX         0.01276   0.02229  -0.01090  -0.00728  -0.01655
  58        7PY        -0.00729   0.00394   0.01191   0.00089  -0.01152
  59        7PZ         0.00005   0.00004  -0.00005  -0.00002  -0.00000
  60        8D 0        0.00013  -0.00009   0.00032  -0.00037  -0.00083
  61        8D+1       -0.00000  -0.00000  -0.00001   0.00000  -0.00000
  62        8D-1        0.00000   0.00000   0.00000  -0.00000  -0.00000
  63        8D+2       -0.00025   0.00003   0.00023   0.00035  -0.00043
  64        8D-2        0.00016  -0.00012   0.00137  -0.00064   0.00062
  65        9D 0        0.00007  -0.00111  -0.00167   0.00157   0.00876
  66        9D+1       -0.00000   0.00000   0.00006  -0.00001  -0.00001
  67        9D-1        0.00003   0.00003  -0.00003  -0.00003  -0.00000
  68        9D+2        0.00655   0.00802   0.00760  -0.00333   0.01655
  69        9D-2       -0.00435   0.00292  -0.02212  -0.00480  -0.01373
  70 4   C  1S          0.00081  -0.02108   0.87046  -0.48392  -0.11049
  71        2S         -0.00081  -0.00094   0.02376  -0.01807  -0.00579
  72        3S         -0.01314   0.01255  -0.14137   0.08490  -0.00746
  73        4S          0.07134  -0.10296  -0.00230   0.05687   0.03063
  74        5PX         0.00044   0.00047   0.00198  -0.00445  -0.00075
  75        5PY        -0.00000   0.00008  -0.00312  -0.00418  -0.00091
  76        5PZ        -0.00001   0.00000   0.00002   0.00002   0.00005
  77        6PX        -0.00325   0.02882  -0.02442   0.01607   0.03764
  78        6PY        -0.00811  -0.00197  -0.00741   0.07295  -0.03899
  79        6PZ        -0.00001   0.00005  -0.00003  -0.00001   0.00013
  80        7PX        -0.00374   0.00435  -0.00663   0.01418   0.01643
  81        7PY        -0.00390  -0.03753   0.01727   0.01497  -0.00470
  82        7PZ        -0.00001   0.00004  -0.00006  -0.00002  -0.00000
  83        8D 0       -0.00018   0.00017   0.00040   0.00066   0.00081
  84        8D+1        0.00000   0.00000   0.00000  -0.00000  -0.00001
  85        8D-1        0.00000   0.00000  -0.00000   0.00000   0.00000
  86        8D+2       -0.00065  -0.00001   0.00030   0.00134  -0.00012
  87        8D-2       -0.00011   0.00006  -0.00044  -0.00087   0.00132
  88        9D 0       -0.00202   0.00209   0.00837  -0.00610  -0.00257
  89        9D+1        0.00001  -0.00003   0.00001   0.00001   0.00007
  90        9D-1        0.00009   0.00001   0.00006   0.00000   0.00003
  91        9D+2        0.01381  -0.00858   0.03192  -0.01268   0.02950
  92        9D-2       -0.00241  -0.01417   0.00166   0.01728  -0.00961
  93 5   O  1S          0.54033  -0.84030  -0.01411   0.00571  -0.00042
  94        2S          0.00979  -0.02049  -0.00305   0.00415   0.00404
  95        3S         -0.02612   0.03381  -0.00939   0.00513   0.00411
  96        4S         -0.02652   0.03856  -0.00991   0.00632   0.00742
  97        5PX         0.00235   0.00008  -0.00598   0.00652   0.00106
  98        5PY        -0.00106  -0.00224  -0.00749   0.00155  -0.00843
  99        5PZ        -0.00004  -0.00002  -0.00001   0.00006   0.00012
 100        6PX         0.00398   0.00704  -0.00542   0.00608   0.00199
 101        6PY        -0.00790   0.00153  -0.00692   0.00022  -0.00559
 102        6PZ        -0.00007   0.00002   0.00001   0.00003   0.00010
 103        7PX        -0.00312   0.01027  -0.01185   0.00029   0.00209
 104        7PY        -0.00547   0.00343  -0.00059   0.00193  -0.00041
 105        7PZ         0.00001   0.00003   0.00004   0.00003   0.00002
 106        8D 0        0.00022   0.00000   0.00073  -0.00024   0.00024
 107        8D+1        0.00000   0.00000   0.00000   0.00000   0.00000
 108        8D-1       -0.00001  -0.00000  -0.00000   0.00000   0.00000
 109        8D+2        0.00003  -0.00010  -0.00055   0.00011   0.00014
 110        8D-2        0.00034   0.00023  -0.00029   0.00017   0.00018
 111        9D 0        0.00176   0.00041  -0.00027  -0.00018  -0.00094
 112        9D+1        0.00003   0.00001  -0.00000   0.00001   0.00001
 113        9D-1       -0.00004  -0.00001  -0.00000  -0.00001   0.00001
 114        9D+2        0.00024   0.00147  -0.00112   0.00166   0.00043
 115        9D-2        0.00292   0.00089  -0.00219   0.00058  -0.00028
 116 6   C  1S          0.84352   0.53954   0.01140   0.00006  -0.00287
 117        2S          0.02204   0.01538  -0.00167  -0.00167  -0.00684
 118        3S         -0.04740  -0.03961  -0.00398  -0.00458  -0.00197
 119        4S         -0.02902  -0.00957  -0.01343  -0.00251   0.01100
 120        5PX         0.00193   0.00198   0.00468   0.00424   0.00231
 121        5PY         0.00024  -0.00021   0.00789   0.00462   0.00441
 122        5PZ        -0.00008  -0.00004  -0.00003   0.00002   0.00024
 123        6PX         0.00757  -0.00457  -0.00200   0.00404  -0.00501
 124        6PY        -0.01301  -0.00004  -0.00054  -0.00381   0.00187
 125        6PZ        -0.00009  -0.00003   0.00007  -0.00005  -0.00003
 126        7PX        -0.00601  -0.00397  -0.00513  -0.00141   0.00272
 127        7PY        -0.00209  -0.00293   0.00069  -0.00294  -0.00094
 128        7PZ        -0.00000  -0.00004   0.00005  -0.00002  -0.00006
 129        8D 0        0.00011   0.00010   0.00054   0.00033   0.00047
 130        8D+1        0.00000  -0.00000   0.00001  -0.00000   0.00001
 131        8D-1       -0.00000   0.00000  -0.00001  -0.00001  -0.00000
 132        8D+2       -0.00016  -0.00014  -0.00066   0.00007  -0.00054
 133        8D-2       -0.00014   0.00004  -0.00011  -0.00057   0.00005
 134        9D 0       -0.00263   0.00091  -0.00403  -0.00175  -0.00046
 135        9D+1       -0.00004   0.00004  -0.00001  -0.00000   0.00001
 136        9D-1        0.00005  -0.00003   0.00004  -0.00002  -0.00002
 137        9D+2       -0.00044   0.00088   0.00118   0.00390  -0.00073
 138        9D-2       -0.00233   0.00151   0.00426   0.00103   0.00116
 139 7   C  1S         -0.00380  -0.00412   0.47863   0.87140  -0.06618
 140        2S          0.00028  -0.00055   0.01177   0.02872  -0.00348
 141        3S          0.00270   0.00430  -0.03105  -0.13533   0.04238
 142        4S         -0.04368   0.04857  -0.07386  -0.10087   0.02247
 143        5PX         0.00007  -0.00014   0.00145   0.00035  -0.00041
 144        5PY         0.00017  -0.00023   0.00371  -0.00050   0.00154
 145        5PZ        -0.00000   0.00000   0.00001   0.00001   0.00001
 146        6PX        -0.01669   0.01010  -0.06464   0.00302  -0.02637
 147        6PY        -0.01188   0.00122  -0.05137   0.05777  -0.01420
 148        6PZ        -0.00008  -0.00001  -0.00011  -0.00005  -0.00005
 149        7PX        -0.01644  -0.03808  -0.01630  -0.01739   0.01240
 150        7PY         0.00818  -0.03617   0.00716   0.02159   0.00125
 151        7PZ         0.00001  -0.00000   0.00003  -0.00001   0.00002
 152        8D 0        0.00026  -0.00009   0.00011  -0.00081  -0.00002
 153        8D+1        0.00000   0.00000   0.00000   0.00000  -0.00000
 154        8D-1        0.00000   0.00000  -0.00000  -0.00000  -0.00000
 155        8D+2       -0.00011  -0.00009   0.00088  -0.00038   0.00017
 156        8D-2       -0.00021   0.00020  -0.00124   0.00018   0.00019
 157        9D 0        0.00085  -0.00165   0.00247   0.01025  -0.00124
 158        9D+1       -0.00000   0.00002  -0.00004   0.00001  -0.00002
 159        9D-1        0.00004   0.00001   0.00001   0.00001   0.00005
 160        9D+2       -0.00567   0.00315  -0.01911   0.01314  -0.00508
 161        9D-2        0.00279  -0.00408   0.00537  -0.01692   0.01812
 162 8   C  1S          0.00001   0.00308   0.06285   0.08510   0.09264
 163        2S          0.00002   0.00028  -0.00010   0.00112   0.00204
 164        3S          0.01152  -0.01356   0.03007  -0.01316   0.02316
 165        4S          0.03579   0.00446   0.06182   0.04568   0.00800
 166        5PX        -0.00011   0.00015   0.00171   0.00211   0.00012
 167        5PY        -0.00010  -0.00001   0.00040  -0.00022  -0.00031
 168        5PZ        -0.00000   0.00000   0.00000   0.00000   0.00000
 169        6PX        -0.01163   0.00093  -0.05860  -0.01942   0.00174
 170        6PY         0.00152   0.00993   0.01707   0.01405  -0.02815
 171        6PZ        -0.00003  -0.00000  -0.00016  -0.00005   0.00003
 172        7PX        -0.00556  -0.02611  -0.00833  -0.00888   0.01424
 173        7PY        -0.00616   0.01452  -0.01410  -0.01322  -0.00522
 174        7PZ        -0.00005  -0.00011  -0.00004  -0.00002   0.00004
 175        8D 0       -0.00006   0.00009   0.00018   0.00060  -0.00015
 176        8D+1        0.00000  -0.00000  -0.00000  -0.00001  -0.00000
 177        8D-1        0.00000   0.00000  -0.00000  -0.00000  -0.00000
 178        8D+2        0.00015  -0.00003  -0.00060  -0.00126  -0.00016
 179        8D-2       -0.00003   0.00013  -0.00042  -0.00022   0.00009
 180        9D 0       -0.00009   0.00057  -0.00011  -0.00205   0.00021
 181        9D+1        0.00001  -0.00000   0.00003   0.00003  -0.00002
 182        9D-1       -0.00002  -0.00002   0.00003  -0.00001   0.00000
 183        9D+2        0.00289   0.00068   0.01734   0.00812  -0.00675
 184        9D-2        0.00314   0.00023   0.01268  -0.00014   0.00412
 185 9   H  1S          0.00007  -0.00015  -0.00103   0.00075  -0.00155
 186        2S          0.00412  -0.00469   0.01740  -0.00475   0.02084
 187        3S         -0.00047   0.00359   0.00422   0.00279  -0.00544
 188        4PX         0.00013   0.00014   0.00013  -0.00009  -0.00074
 189        4PY        -0.00022  -0.00009  -0.00091   0.00005  -0.00196
 190        4PZ         0.00000   0.00000   0.00000  -0.00000   0.00000
 191        5PX         0.00066   0.00152  -0.00158  -0.00085   0.00154
 192        5PY        -0.00002  -0.00219   0.00410  -0.00235   0.00349
 193        5PZ         0.00000   0.00001  -0.00002  -0.00001  -0.00004
 194 10  H  1S         -0.00582  -0.00363  -0.00866  -0.00532  -0.00705
 195        2S          0.01310   0.00272  -0.01747  -0.00873  -0.00920
 196        3S         -0.00267  -0.00214  -0.00188  -0.00132   0.00018
 197        4PX        -0.00190  -0.00083  -0.00017  -0.00005  -0.00042
 198        4PY        -0.00066  -0.00061   0.00009  -0.00005  -0.00010
 199        4PZ        -0.00000  -0.00000  -0.00000  -0.00000   0.00001
 200        5PX         0.00381   0.00182  -0.00286  -0.00128  -0.00201
 201        5PY         0.00214  -0.00034  -0.00014  -0.00112  -0.00068
 202        5PZ         0.00000   0.00000  -0.00002  -0.00001   0.00000
 203 11  H  1S         -0.00379  -0.00204   0.00410   0.00140  -0.00057
 204        2S          0.02289   0.01103   0.00895   0.00947  -0.00113
 205        3S          0.00347   0.00118  -0.00082   0.00176   0.00041
 206        4PX         0.00004   0.00029  -0.00014  -0.00011   0.00015
 207        4PY         0.00131   0.00044   0.00007   0.00016   0.00028
 208        4PZ        -0.00155  -0.00080  -0.00004   0.00004  -0.00020
 209        5PX        -0.00037   0.00006  -0.00168  -0.00009  -0.00033
 210        5PY        -0.00419  -0.00214  -0.00194  -0.00039   0.00022
 211        5PZ         0.00518   0.00383   0.00096   0.00292  -0.00079
 212 12  H  1S         -0.00389  -0.00208   0.00398   0.00139  -0.00031
 213        2S          0.02271   0.01107   0.00850   0.00939  -0.00066
 214        3S          0.00348   0.00126  -0.00085   0.00177   0.00050
 215        4PX         0.00005   0.00030  -0.00014  -0.00011   0.00015
 216        4PY         0.00129   0.00043   0.00007   0.00016   0.00026
 217        4PZ         0.00157   0.00080   0.00004  -0.00004   0.00020
 218        5PX        -0.00041  -0.00001  -0.00171  -0.00016  -0.00032
 219        5PY        -0.00407  -0.00212  -0.00186  -0.00036   0.00015
 220        5PZ        -0.00519  -0.00385  -0.00084  -0.00290   0.00068
 221 13  H  1S          0.00018  -0.00017  -0.00209  -0.00424   0.00157
 222        2S          0.00293  -0.00683   0.02083  -0.02073   0.01062
 223        3S         -0.00682   0.00325  -0.00426  -0.01116   0.00594
 224        4PX         0.00004   0.00007  -0.00053  -0.00113   0.00005
 225        4PY        -0.00001   0.00006   0.00121   0.00100   0.00016
 226        4PZ         0.00000   0.00000  -0.00000  -0.00000   0.00000
 227        5PX        -0.00019   0.00224   0.00343   0.00305  -0.00097
 228        5PY        -0.00118   0.00213  -0.00628   0.00689  -0.00164
 229        5PZ        -0.00000  -0.00000   0.00001  -0.00000  -0.00001
 230 14  H  1S          0.00005   0.00001  -0.00042  -0.00117  -0.00051
 231        2S         -0.00172  -0.00659   0.00096   0.00724   0.00516
 232        3S          0.00296   0.00007   0.00813   0.00623   0.00162
 233        4PX         0.00001  -0.00004   0.00037   0.00043   0.00002
 234        4PY         0.00005  -0.00003   0.00033   0.00028   0.00030
 235        4PZ         0.00000   0.00000   0.00000   0.00000  -0.00000
 236        5PX        -0.00055   0.00082  -0.00288  -0.00198  -0.00078
 237        5PY         0.00089   0.00188   0.00190  -0.00161  -0.00180
 238        5PZ         0.00001   0.00001   0.00001   0.00000   0.00000
                           6         7         8         9        10
     Eigenvalues --     2.00000   2.00000   2.00000   2.00000   2.00000
   1 1   C  1S          0.01669   0.00299   0.01733   0.18207   0.24117
   2        2S         -0.00011   0.00015   0.00127   0.00478   0.00361
   3        3S         -0.00291  -0.00549  -0.03538   0.02895  -0.03090
   4        4S          0.02584   0.00441   0.03481   0.00333   0.13863
   5        5PX         0.00040   0.00001   0.00022  -0.00008  -0.00035
   6        5PY        -0.00012  -0.00006  -0.00118  -0.00067   0.00401
   7        5PZ         0.00000   0.00047  -0.00006   0.00002   0.00005
   8        6PX        -0.02881   0.00197   0.02004   0.00551   0.01943
   9        6PY         0.03803   0.00755   0.06092  -0.08900  -0.06148
  10        6PZ        -0.00011  -0.00997   0.00119  -0.00003   0.00022
  11        7PX        -0.01769  -0.00117  -0.01284  -0.00474   0.02276
  12        7PY         0.04176   0.00207   0.04361   0.10259  -0.18214
  13        7PZ        -0.00007   0.00626  -0.00060   0.00006  -0.00018
  14        8D 0        0.00052   0.00003   0.00045   0.00015  -0.00045
  15        8D+1       -0.00000  -0.00014   0.00001  -0.00000  -0.00000
  16        8D-1        0.00000   0.00012  -0.00001  -0.00000   0.00001
  17        8D+2        0.00058   0.00004   0.00041  -0.00006   0.00086
  18        8D-2        0.00096   0.00001   0.00019   0.00024  -0.00030
  19        9D 0       -0.00080   0.00009   0.00105   0.00032   0.00276
  20        9D+1        0.00004  -0.00087   0.00003  -0.00002  -0.00003
  21        9D-1       -0.00000   0.00060  -0.00020   0.00008   0.00003
  22        9D+2        0.01352  -0.00050  -0.00710  -0.00318  -0.00370
  23        9D-2       -0.00762  -0.00147  -0.01199   0.01736   0.01864
  24 2   C  1S         -0.00419   0.00067  -0.00818   0.15647   0.21092
  25        2S         -0.00079   0.00006   0.00034   0.00254   0.00228
  26        3S          0.01782  -0.00362  -0.01658  -0.02040  -0.07866
  27        4S         -0.00403  -0.00676  -0.03900   0.02497  -0.17982
  28        5PX        -0.00042  -0.00001   0.00043   0.00180  -0.00286
  29        5PY        -0.00047   0.00001   0.00045   0.00135  -0.00274
  30        5PZ         0.00000   0.00201  -0.00022   0.00002   0.00001
  31        6PX         0.03613   0.00710   0.04278  -0.07914  -0.00301
  32        6PY         0.01713   0.00953   0.07822  -0.05076  -0.02145
  33        6PZ         0.00007  -0.00275   0.00014  -0.00016   0.00016
  34        7PX         0.03585   0.00211   0.03486   0.06823  -0.13811
  35        7PY         0.02152   0.00013   0.00523   0.02631  -0.09548
  36        7PZ         0.00006  -0.00044  -0.00003   0.00009   0.00001
  37        8D 0       -0.00028  -0.00001  -0.00001   0.00016  -0.00036
  38        8D+1        0.00000  -0.00074   0.00008  -0.00000   0.00001
  39        8D-1        0.00000  -0.00026   0.00003   0.00000   0.00000
  40        8D+2        0.00029  -0.00002  -0.00022   0.00029   0.00058
  41        8D-2        0.00039   0.00004   0.00064  -0.00016  -0.00129
  42        9D 0       -0.00010  -0.00027  -0.00216   0.00181   0.00051
  43        9D+1       -0.00003   0.00539  -0.00061   0.00015  -0.00007
  44        9D-1        0.00001   0.00915  -0.00112   0.00011  -0.00005
  45        9D+2       -0.00677  -0.00224  -0.01404   0.02790   0.00539
  46        9D-2        0.00780  -0.00093  -0.01012  -0.01065  -0.00471
  47 3   C  1S         -0.10027  -0.00138  -0.01741  -0.01348   0.00077
  48        2S         -0.00544  -0.00008  -0.00178  -0.00896  -0.00408
  49        3S          0.03684  -0.01205  -0.10113  -0.03755   0.04861
  50        4S          0.04834   0.01436   0.10341   0.06114   0.24742
  51        5PX         0.00028   0.00006   0.00015  -0.00523   0.00111
  52        5PY         0.00026  -0.00023  -0.00281   0.00160   0.01649
  53        5PZ         0.00000   0.00706  -0.00073   0.00000  -0.00013
  54        6PX         0.01615   0.01345   0.07686  -0.10766  -0.01293
  55        6PY         0.02083  -0.01399  -0.10800   0.00356  -0.00921
  56        6PZ         0.00001  -0.00882   0.00143  -0.00005  -0.00035
  57        7PX         0.02320   0.00251   0.02159   0.01982  -0.05687
  58        7PY         0.00038   0.00442   0.04045   0.02531   0.08643
  59        7PZ         0.00004   0.00419  -0.00029   0.00005  -0.00059
  60        8D 0        0.00005   0.00005   0.00023  -0.00103  -0.00079
  61        8D+1       -0.00000  -0.00039   0.00003  -0.00000   0.00003
  62        8D-1        0.00000   0.00022  -0.00002  -0.00000  -0.00003
  63        8D+2        0.00002  -0.00005  -0.00044   0.00027  -0.00305
  64        8D-2        0.00001   0.00014   0.00117   0.00060  -0.00065
  65        9D 0       -0.00196   0.00019   0.00025  -0.00504  -0.00365
  66        9D+1       -0.00000   0.01664  -0.00176   0.00023  -0.00005
  67        9D-1        0.00001  -0.01276   0.00159  -0.00001  -0.00008
  68        9D+2       -0.00280   0.00570   0.05633   0.02032   0.01366
  69        9D-2        0.00510   0.00461   0.02370  -0.03757   0.00709
  70 4   C  1S         -0.00366   0.00018   0.00633   0.02969  -0.00184
  71        2S          0.00008  -0.00142  -0.02096  -0.08048   0.01502
  72        3S          0.02927   0.00155  -0.04003  -0.14690   0.02883
  73        4S         -0.02109  -0.02047  -0.18305  -0.30887  -0.27547
  74        5PX        -0.00115  -0.00052  -0.00433   0.02318   0.07693
  75        5PY        -0.00037  -0.00206  -0.02818  -0.09063   0.03879
  76        5PZ         0.00000  -0.01432   0.00173   0.00004  -0.00044
  77        6PX        -0.01335   0.00622   0.03301   0.04665   0.02312
  78        6PY         0.02357  -0.02122  -0.15801   0.10837   0.05632
  79        6PZ        -0.00004   0.02743  -0.00269   0.00006  -0.00022
  80        7PX         0.00226  -0.00559  -0.01567   0.11881  -0.25314
  81        7PY        -0.01771  -0.00310  -0.05726  -0.08680   0.20079
  82        7PZ         0.00002  -0.02761   0.00277  -0.00014   0.00071
  83        8D 0       -0.00040  -0.00003   0.00004  -0.00075   0.00254
  84        8D+1        0.00000   0.00451  -0.00048   0.00005  -0.00000
  85        8D-1       -0.00000   0.00059  -0.00005   0.00004   0.00000
  86        8D+2       -0.00009  -0.00022  -0.00263  -0.00001  -0.00621
  87        8D-2       -0.00010   0.00041   0.00500   0.01790   0.00284
  88        9D 0        0.00004  -0.00059  -0.00576   0.00368   0.00401
  89        9D+1       -0.00002   0.00698  -0.00076  -0.00015   0.00007
  90        9D-1       -0.00001  -0.01555   0.00169   0.00002  -0.00020
  91        9D+2       -0.01114   0.00290   0.04358   0.00607   0.02364
  92        9D-2       -0.00081  -0.01058  -0.09502  -0.01201   0.01457
  93 5   O  1S          0.00119   0.00253   0.02727  -0.15433  -0.04784
  94        2S          0.00372  -0.00452  -0.05015   0.33945   0.10668
  95        3S          0.00487  -0.00253  -0.03447   0.45682   0.13923
  96        4S          0.00212   0.01126   0.11458   0.26418  -0.03409
  97        5PX         0.00134   0.00786   0.07762  -0.09614  -0.13035
  98        5PY        -0.00257  -0.01135  -0.12974  -0.31942  -0.11642
  99        5PZ        -0.00001  -0.14160   0.01522  -0.00099  -0.00066
 100        6PX        -0.00033   0.00545   0.04933  -0.05870  -0.06677
 101        6PY        -0.00259  -0.00857  -0.09505  -0.20257  -0.08585
 102        6PZ        -0.00001  -0.09943   0.01071  -0.00047  -0.00054
 103        7PX         0.00079   0.00099  -0.00857  -0.01601   0.08595
 104        7PY        -0.00092   0.00028   0.01163  -0.00987  -0.05305
 105        7PZ        -0.00001   0.01727  -0.00155   0.00034  -0.00069
 106        8D 0       -0.00003   0.00039   0.00508   0.00180   0.00174
 107        8D+1        0.00000   0.00403  -0.00037  -0.00001  -0.00009
 108        8D-1       -0.00000  -0.00784   0.00079  -0.00005  -0.00003
 109        8D+2        0.00011   0.00003   0.00050   0.00384   0.00690
 110        8D-2        0.00008   0.00065   0.00632  -0.00684  -0.00390
 111        9D 0        0.00029   0.00078   0.00964   0.00425  -0.00492
 112        9D+1       -0.00000   0.00391  -0.00032  -0.00005  -0.00011
 113        9D-1       -0.00000  -0.02170   0.00225  -0.00009  -0.00005
 114        9D+2        0.00003   0.00007   0.00123   0.00458   0.02875
 115        9D-2       -0.00050   0.00102   0.00711  -0.01732   0.00378
 116 6   C  1S         -0.00109   0.01722   0.15285  -0.01003   0.04560
 117        2S         -0.00161  -0.04233  -0.37252   0.02554  -0.10019
 118        3S         -0.00065  -0.01581  -0.13504  -0.04961  -0.02690
 119        4S          0.00950  -0.00689  -0.06265   0.00654   0.01349
 120        5PX         0.00034   0.01100   0.11676   0.09085  -0.22129
 121        5PY         0.00087   0.00740   0.06745   0.15062  -0.31729
 122        5PZ        -0.00002  -0.44989   0.04997  -0.00070   0.00166
 123        6PX        -0.00184  -0.00193  -0.04083  -0.06864   0.07863
 124        6PY        -0.00041  -0.00537  -0.04055   0.02017   0.07768
 125        6PZ         0.00001   0.03659  -0.00482   0.00018   0.00045
 126        7PX         0.00370  -0.00503  -0.05210  -0.02449   0.05074
 127        7PY         0.00044  -0.00136  -0.01264  -0.01631   0.04930
 128        7PZ        -0.00001   0.02317  -0.00277  -0.00004   0.00004
 129        8D 0        0.00003   0.00066   0.00929   0.00630  -0.01653
 130        8D+1       -0.00000  -0.00878   0.00104   0.00003  -0.00004
 131        8D-1       -0.00000  -0.01527   0.00157  -0.00006   0.00036
 132        8D+2       -0.00002  -0.00068  -0.00575  -0.01972   0.00241
 133        8D-2       -0.00007  -0.00008   0.00080  -0.00719   0.00121
 134        9D 0        0.00025  -0.00208  -0.02753  -0.02769   0.08487
 135        9D+1        0.00002   0.04753  -0.00493   0.00022  -0.00019
 136        9D-1        0.00001   0.05321  -0.00581   0.00034  -0.00119
 137        9D+2       -0.00054   0.00225   0.01369   0.00608  -0.01508
 138        9D-2        0.00042   0.00294   0.03383   0.03087  -0.04900
 139 7   C  1S         -0.09785  -0.00048  -0.00258   0.01069   0.00786
 140        2S         -0.00442  -0.00100  -0.01292  -0.03968   0.02728
 141        3S          0.02818   0.01552   0.13127  -0.00707   0.09653
 142        4S          0.07428   0.02082   0.15391   0.00839   0.26810
 143        5PX        -0.00188   0.00039   0.00559   0.02299   0.01264
 144        5PY        -0.00002   0.00136   0.02052   0.05141  -0.06775
 145        5PZ         0.00000  -0.00463   0.00054   0.00009   0.00003
 146        6PX         0.06220  -0.01257  -0.12519   0.10835  -0.06041
 147        6PY         0.00372  -0.01178  -0.10069   0.05078   0.03575
 148        6PZ         0.00012   0.01424  -0.00152   0.00026   0.00001
 149        7PX         0.01140   0.00051  -0.04390  -0.18559   0.30843
 150        7PY        -0.01541  -0.00222  -0.02986  -0.10806   0.06068
 151        7PZ         0.00002   0.02940  -0.00293   0.00029  -0.00078
 152        8D 0        0.00058  -0.00001   0.00063   0.00327  -0.00170
 153        8D+1       -0.00000   0.00037  -0.00006   0.00001   0.00001
 154        8D-1       -0.00000   0.00011  -0.00002   0.00000   0.00002
 155        8D+2       -0.00098   0.00016   0.00198   0.00424  -0.00424
 156        8D-2       -0.00033  -0.00002  -0.00087  -0.00467   0.00102
 157        9D 0       -0.00302   0.00128   0.01325  -0.00333   0.00625
 158        9D+1        0.00005   0.01781  -0.00164   0.00010  -0.00002
 159        9D-1       -0.00002   0.00645  -0.00068   0.00004  -0.00026
 160        9D+2        0.01694  -0.00763  -0.07733   0.01301  -0.00181
 161        9D-2       -0.01666  -0.00285  -0.02615  -0.00769  -0.01577
 162 8   C  1S          0.98831  -0.00072  -0.00661  -0.00966  -0.00029
 163        2S          0.03802  -0.00007  -0.00077  -0.00382  -0.00723
 164        3S         -0.13806   0.01207   0.13059  -0.01088   0.06930
 165        4S         -0.14098  -0.01075  -0.05403   0.11591  -0.26363
 166        5PX         0.00057   0.00005   0.00025   0.00101  -0.00615
 167        5PY        -0.00067   0.00019   0.00280   0.00085  -0.01440
 168        5PZ         0.00000   0.00109  -0.00013   0.00004   0.00012
 169        6PX         0.03099  -0.01032  -0.10340   0.08967   0.00880
 170        6PY         0.05112   0.00173   0.00806  -0.00977  -0.05639
 171        6PZ         0.00006  -0.01770   0.00127   0.00010   0.00018
 172        7PX        -0.00578   0.00052  -0.02078  -0.10568   0.15504
 173        7PY         0.02679   0.00144   0.01404   0.03972  -0.01518
 174        7PZ        -0.00002  -0.01527   0.00143  -0.00059   0.00108
 175        8D 0       -0.00080   0.00001   0.00002   0.00063  -0.00048
 176        8D+1       -0.00000  -0.00007   0.00001  -0.00001   0.00000
 177        8D-1       -0.00000  -0.00006   0.00000  -0.00000  -0.00000
 178        8D+2       -0.00068  -0.00004  -0.00025  -0.00102   0.00010
 179        8D-2        0.00038  -0.00008  -0.00111  -0.00104   0.00333
 180        9D 0        0.00904   0.00009  -0.00018   0.00227  -0.00256
 181        9D+1       -0.00001   0.01379  -0.00121  -0.00003  -0.00003
 182        9D-1       -0.00003   0.00110  -0.00003  -0.00012   0.00013
 183        9D+2        0.00922   0.00118   0.01086  -0.01727  -0.01004
 184        9D-2       -0.01400   0.00096   0.01224  -0.01620  -0.01056
 185 9   H  1S         -0.00045  -0.00002   0.00005  -0.00327  -0.01114
 186        2S          0.00196  -0.00462  -0.01324   0.02863  -0.03249
 187        3S          0.00466   0.00193   0.01865   0.01963   0.02277
 188        4PX         0.00001  -0.00002  -0.00005  -0.00184  -0.00103
 189        4PY         0.00008  -0.00002  -0.00051  -0.00077  -0.00101
 190        4PZ        -0.00000   0.00045  -0.00004   0.00000  -0.00000
 191        5PX         0.00051   0.00109   0.00920  -0.00027   0.00875
 192        5PY         0.00123  -0.00215  -0.01179   0.00467  -0.01162
 193        5PZ         0.00000  -0.00313   0.00037  -0.00001   0.00005
 194 10  H  1S         -0.00147  -0.03135  -0.29756  -0.14896   0.23608
 195        2S         -0.00291  -0.02485  -0.26908  -0.26969   0.52716
 196        3S          0.00135  -0.00401  -0.04081  -0.02783   0.05478
 197        4PX        -0.00010  -0.00241  -0.02198  -0.00306   0.00536
 198        4PY        -0.00004  -0.00126  -0.01204   0.00185  -0.00433
 199        4PZ        -0.00000  -0.01414   0.00153  -0.00004   0.00008
 200        5PX        -0.00089  -0.00490  -0.05522  -0.04538   0.11750
 201        5PY        -0.00000  -0.00248  -0.02323  -0.01837   0.02872
 202        5PZ         0.00001   0.01404  -0.00157  -0.00009   0.00004
[...]
 ! A18   A(8,7,13)             118.8695         -DE/DX =    0.0                 !
 ! A19   A(1,8,7)              119.8243         -DE/DX =    0.0                 !
 ! A20   A(1,8,14)             120.5168         -DE/DX =    0.0                 !
 ! A21   A(7,8,14)             119.6588         -DE/DX =    0.0                 !
 ! D1    D(8,1,2,3)              0.0            -DE/DX =    0.0                 !
 ! D2    D(2,1,8,7)              0.0            -DE/DX =    0.0                 !
 ! D3    D(2,1,8,14)           179.9999         -DE/DX =    0.0                 !
 ! D4    D(1,2,3,4)              0.0            -DE/DX =    0.0                 !
 ! D5    D(1,2,3,9)            180.0            -DE/DX =    0.0                 !
 ! D6    D(2,3,4,5)           -180.0            -DE/DX =    0.0                 !
 ! D7    D(2,3,4,7)              0.0            -DE/DX =    0.0                 !
 ! D8    D(9,3,4,5)              0.0            -DE/DX =    0.0                 !
 ! D9    D(9,3,4,7)           -180.0            -DE/DX =    0.0                 !
 ! D10   D(3,4,5,6)            179.9998         -DE/DX =    0.0                 !
 ! D11   D(7,4,5,6)             -0.0002         -DE/DX =    0.0                 !
 ! D12   D(3,4,7,8)              0.0            -DE/DX =    0.0                 !
 ! D13   D(3,4,7,13)          -180.0            -DE/DX =    0.0                 !
 ! D14   D(5,4,7,8)            180.0            -DE/DX =    0.0                 !
 ! D15   D(5,4,7,13)             0.0            -DE/DX =    0.0                 !
 ! D16   D(4,5,6,10)          -179.9999         -DE/DX =    0.0                 !
 ! D17   D(4,5,6,11)            61.2435         -DE/DX =    0.0                 !
 ! D18   D(4,5,6,12)           -61.2433         -DE/DX =    0.0                 !
 ! D19   D(4,7,8,1)              0.0            -DE/DX =    0.0                 !
 ! D20   D(4,7,8,14)          -179.9999         -DE/DX =    0.0                 !
 ! D21   D(13,7,8,1)           180.0            -DE/DX =    0.0                 !
 ! D22   D(13,7,8,14)            0.0            -DE/DX =    0.0                 !
 --------------------------------------------------------------------------------
 GradGradGradGradGradGradGradGradGradGradGradGradGradGradGradGradGradGrad

 Leave Link  103 at Sat Jun 27 00:24:12 2020, MaxMem=   524288000 cpu:               0.1 elap:               0.0
 (Enter /home/ubuntu/g16/l9999.exe)

 ----------------------------------------------------------------------

 Electric dipole moment (input orientation):
 (Debye = 10**-18 statcoulomb cm , SI units = C m)
                  (au)            (Debye)         (10**-30 SI)
   Tot        0.113457D+01      0.288380D+01      0.961933D+01
   x          0.866945D+00      0.220355D+01      0.735027D+01
   y         -0.722804D+00     -0.183719D+01     -0.612819D+01
   z         -0.114977D+00     -0.292242D+00     -0.974814D+00

 Dipole polarizability, Alpha (input orientation).
 (esu units = cm**3 , SI units = C**2 m**2 J**-1)
 Alpha(0;0):
               (au)            (10**-24 esu)      (10**-40 SI)
   iso        0.866188D+02      0.128356D+02      0.142815D+02
   aniso      0.472406D+02      0.700033D+01      0.778892D+01
   xx         0.110218D+03      0.163325D+02      0.181724D+02
   yx        -0.241673D+01     -0.358122D+00     -0.398464D+00
   yy         0.920289D+02      0.136373D+02      0.151735D+02
   zx        -0.417193D+01     -0.618216D+00     -0.687858D+00
   zy         0.260816D+01      0.386490D+00      0.430028D+00
   zz         0.576099D+02      0.853691D+01      0.949859D+01

 ----------------------------------------------------------------------

 Dipole orientation:
     6         -1.67951084          1.58839239         -1.59713596
     6         -0.02043467         -0.38105008         -2.23261840
     6          1.17615499         -1.80360684         -0.41767687
     6          0.70881108         -1.25135771          2.15787101
     8          1.96324371         -2.74290425          3.85041616
     6          1.57989389         -2.28522852          6.47526375
     6         -0.94303045          0.70920929          2.81716216
     6         -2.14118157          2.13380938          0.90630311
     1          2.46736749         -3.33585957         -0.90739910
     1          2.75072098         -3.67398306          7.46327813
     1         -0.41395259         -2.55711678          7.00329933
     1          2.18672068         -0.36599524          7.00101262
     1         -1.32855461          1.16468258          4.78312121
     1         -3.42881922          3.66187731          1.42601266

 Electric dipole moment (dipole orientation):
 (Debye = 10**-18 statcoulomb cm , SI units = C m)
                  (au)            (Debye)         (10**-30 SI)
   Tot        0.113457D+01      0.288380D+01      0.961933D+01
   x          0.000000D+00      0.000000D+00      0.000000D+00
   y          0.000000D+00      0.000000D+00      0.000000D+00
   z          0.113457D+01      0.288380D+01      0.961933D+01

 Dipole polarizability, Alpha (dipole orientation).
 (esu units = cm**3 , SI units = C**2 m**2 J**-1)
 Alpha(0;0):
               (au)            (10**-24 esu)      (10**-40 SI)
   iso        0.866188D+02      0.128356D+02      0.142815D+02
   aniso      0.472406D+02      0.700033D+01      0.778892D+01
   xx         0.737103D+02      0.109227D+02      0.121532D+02
   yx        -0.197070D+02     -0.292027D+01     -0.324924D+01
   yy         0.805150D+02      0.119311D+02      0.132751D+02
   zx         0.547880D+01      0.811875D+00      0.903333D+00
   zy        -0.654469D+01     -0.969824D+00     -0.107907D+01
   zz         0.105631D+03      0.156529D+02      0.174162D+02

 ----------------------------------------------------------------------
 1\1\GINC-LC06-4-8\Freq\UB3LYP\Aug-CC-pVDZ\C7H6O1(3)\UBUNTU\27-Jun-2020
 \0\\#P Geom=AllCheck Guess=TCheck SCRF=Check GenChk UB3LYP/Aug-CC-pVDZ
  Freq\\t-4-MeOC6H3_UB3LYP-aug-cc-pVDZ\\0,3\C,-1.434913168,-0.385191964
 7,-0.0579810095\C,-0.8187178768,0.8752227957,-0.0169964889\C,0.5454053
 912,1.0186162404,-0.1100587228\C,1.3414652623,-0.1435156722,-0.2509713
 811\O,2.6866156861,0.0777239627,-0.3373390802\C,3.5456144436,-1.049778
 6043,-0.478815216\C,0.7387718129,-1.4072988407,-0.2932994599\C,-0.6650
 020667,-1.5194042913,-0.1950360529\H,1.0268173442,1.9977545349,-0.0782
 50371\H,4.5610562336,-0.6449301591,-0.5265539909\H,3.3269794335,-1.603
 2918384,-1.4050076772\H,3.4601762981,-1.7264314287,0.3853807577\H,1.33
 13221425,-2.3124473032,-0.4010635026\H,-1.1324209366,-2.5064174311,-0.
 2284178048\\Version=ES64L-G16RevA.03\State=3-A\HF=-345.4264634\S2=2.00
 8468\S2-1=0.\S2A=2.000039\RMSD=6.514e-09\RMSF=1.470e-05\ZeroPoint=0.10
 63174\Thermal=0.1132497\Dipole=0.8669453,-0.7228044,-0.1149768\DipoleD
 eriv=-0.1842498,0.0727949,0.0094866,-0.0206692,-0.1205149,0.0018343,0.
 0033123,-0.0052094,-0.1265319,0.130007,0.1455526,-0.0013276,0.160053,0
 .0934027,-0.0040892,-0.0005388,-0.0029781,-0.0210599,-0.390895,-0.0559
 792,0.0174059,0.1571375,-0.052646,-0.0079841,0.032057,0.0082136,-0.111
 0981,1.624344,-0.0593587,-0.1211262,0.2136532,0.1149866,-0.0131818,-0.
 1027817,0.0074183,0.0825901,-1.8067714,0.2162405,0.1324536,0.1598048,-
 0.4774494,-0.0277436,0.1288036,-0.0318363,-0.2596093,0.6509456,-0.1834
 723,-0.0373734,-0.5198678,0.508915,0.0519617,-0.0604185,0.0265537,0.32
 87419,-0.2545356,0.0717498,0.0083949,-0.3029081,-0.0458742,0.0342877,-
 0.0173938,0.0059251,-0.2075775,0.136678,-0.1188621,-0.0239852,0.018026
 7,-0.0202306,0.0021655,-0.0144139,0.0124255,-0.0684434,0.0774129,-0.05
 54373,0.002102,-0.0266045,0.0407359,-0.0060362,0.0042377,-0.00394,0.15
 57664,-0.1221952,-0.0119899,0.0148985,-0.0686247,0.0423958,0.0019214,0
 .0109883,-0.0023158,0.0874561,0.0194229,-0.0348188,-0.0742067,0.103081
 3,-0.0253125,-0.0693082,0.0087129,-0.0882129,-0.0912575,0.0275812,-0.0
 296012,0.0537021,0.1139989,-0.0470893,0.0596017,-0.0099317,0.0996163,-
 0.0773916,0.0272818,0.0642225,0.0125452,0.076327,-0.0067227,-0.015544,
 0.0134211,-0.0146378,0.1319217,0.0649735,-0.0210407,0.0070303,-0.06340
 82,-0.0045966,-0.0078853,0.0039455,-0.0110221,0.176493\Polar=110.21750
 36,-2.4167254,92.0289266,-4.1719271,2.6081638,57.6099044\Quadrupole=-0
 .0103386,2.3431766,-2.3328381,-0.3659121,-0.1996695,0.3559449\PG=C01 [
 X(C7H6O1)]\NImag=0\\0.36246140,-0.00714810,0.59525395,-0.02412880,0.03
 843608,0.05431543,-0.12933223,-0.10376763,0.00004448,0.52241585,-0.111
 95896,-0.29680065,-0.00982501,0.12400379,0.44177923,-0.00053163,-0.010
 43819,-0.03411331,-0.02687473,0.01765804,0.05593934,-0.01778798,-0.072
 75683,-0.00285498,-0.35976071,-0.01147881,0.02304437,0.67310988,-0.032
 01799,0.02870340,0.00362485,-0.04696303,-0.10463928,-0.00066465,0.0649
 0628,0.64565708,-0.00002826,0.00670919,0.01175447,0.02058572,-0.003350
 42,-0.04583970,-0.03805149,0.03240324,0.11458182,0.00417913,0.00446907
 ,0.00025416,-0.04612796,0.01457966,0.00483156,-0.13791154,0.10849930,0
 .01282878,0.63568835,0.00720117,-0.07551084,-0.00603446,0.07085927,0.0
 5196487,-0.00204516,0.03648614,-0.24198308,-0.01485701,0.00698936,0.67
 724345,0.00045425,-0.00583118,0.00309733,0.00873790,0.00220958,0.00380
 605,0.00781275,-0.02028316,-0.06989178,-0.03629970,0.03617114,0.153597
 50,-0.00664607,-0.00459938,0.00008678,0.00403208,0.00411918,0.00024199
 ,-0.05354548,0.01103281,0.00533303,-0.26752268,-0.05535712,0.01325528,
 0.50903450,-0.00136973,0.00527782,0.00056822,-0.00002700,-0.00849831,-
 0.00084049,0.04145608,0.00821423,-0.00304312,-0.01536525,-0.11357804,-
 0.00377957,-0.07059813,0.34012677,0.00030578,0.00082106,-0.00132951,-0
 .00005367,-0.00115272,0.00349388,0.00744512,-0.00074924,0.00626957,0.0
 1597377,-0.00074920,-0.04297838,-0.03818347,0.02401892,0.07100587,0.00
 141847,0.00010143,-0.00013913,-0.00092949,0.00150777,0.00028686,-0.000
 86564,-0.00443937,-0.00002398,-0.04654708,0.03245493,0.00536586,-0.119
 25439,0.04111785,0.00745971,0.55928456,-0.00144094,0.00024289,0.000159
 80,-0.00067825,-0.00029108,-0.00006785,-0.00466695,0.00179031,0.000278
 84,0.01129376,0.00716189,-0.00004393,0.07305987,-0.17900035,-0.0137915
 6,0.08345347,0.49647650,-0.00024309,0.00003784,-0.00046049,0.00013764,
 -0.00023232,0.00139176,-0.00002595,0.00025412,0.00295650,0.00392911,-0
 .00164547,-0.00505591,0.00961321,-0.01136591,-0.05905140,0.00600842,-0
 .01084998,0.56244660,-0.03684939,0.07763601,0.00878230,-0.04372269,-0.
 03100489,0.00145636,0.04971207,-0.01176105,-0.00402955,-0.14973370,-0.
 03285560,0.00448688,-0.03331539,-0.03968620,0.00038681,0.00202729,-0.0
 0885570,-0.00086796,0.65799502,0.02305573,0.03041247,-0.00017824,-0.03
 000167,-0.02615627,0.00016536,0.02549476,-0.04675935,-0.00567823,-0.09
 036425,-0.29102822,-0.00921517,-0.01457785,-0.00068572,0.00046013,0.00
 016873,0.00132588,0.00018422,-0.03552949,0.69833428,0.00499405,-0.0043
 0779,0.00730058,0.00151823,0.00024724,0.00394180,-0.00143394,-0.002867
 10,0.00706910,0.00047287,-0.01355718,-0.06121552,0.00215919,0.00236809
 ,0.00855857,-0.00025545,0.00085886,-0.00140616,-0.04377800,0.04350138,
 0.11785377,-0.17583497,0.09510064,0.01623165,0.06415152,0.03238345,-0.
 00186880,-0.04657585,0.02663174,0.00535073,-0.02011944,-0.07828664,-0.
 00381085,0.00158646,0.00438162,0.00066694,-0.00062393,0.00077068,0.000
 12378,-0.29919108,0.01853618,0.01958738,0.59307469,0.13380576,-0.27064
 048,-0.02556423,-0.01198264,-0.05286507,-0.00343174,0.02533272,-0.0103
 4280,-0.00261373,-0.03413134,0.02292998,0.00406922,0.00026614,-0.00572
 899,-0.00085787,0.00139008,-0.00120304,-0.00021121,-0.05282941,-0.1046
 2543,0.00067220,0.01504678,0.69426485,0.01892497,-0.02264177,-0.051463
 08,-0.00495390,-0.00678279,0.00944311,0.00526179,-0.00271308,-0.000826
 45,-0.00073732,0.00740388,0.00210920,0.00037054,-0.00116188,0.00613330
 ,0.00017108,-0.00016795,0.00035551,0.01462003,-0.00471552,-0.05844861,
 -0.03477730,0.03889805,0.12414234,-0.00519150,-0.00062041,0.00038366,-
 0.01100213,-0.02595991,-0.00076716,-0.10249966,-0.11388473,-0.00240368
 ,0.00967526,0.01568160,0.00109862,0.00111794,-0.00082842,-0.00034839,0
 .00008843,0.00007673,-0.00007285,-0.00107135,0.00290941,0.00036398,-0.
 00044236,0.00104745,0.00003363,0.10885427,0.00003561,0.00075895,0.0000
 1802,-0.00235481,0.00048519,0.00002080,-0.10593898,-0.27733805,-0.0092
 6505,-0.01484293,-0.01883168,-0.00086921,-0.00182680,0.00209000,0.0004
 7283,0.00033174,-0.00003531,0.00003938,0.00396710,-0.00278093,-0.00056
 788,0.00064865,0.00061247,0.00006075,0.12088626,0.29560888,0.00042793,
 0.00005915,0.00043653,0.00087853,0.00180667,0.00280961,-0.00184798,-0.
 00866757,-0.02979305,-0.00102772,-0.00317044,0.00962326,-0.00041444,0.
 00039953,-0.00268548,-0.00005650,0.00005695,-0.00092916,0.00043655,-0.
 00048576,0.00101244,0.00000318,0.00003079,-0.00096464,0.00151507,0.010
 23198,0.01807436,-0.00004036,-0.00005593,-0.00000821,-0.00014455,0.000
 35728,0.00003489,-0.00105794,-0.00029052,0.00007741,0.00160271,0.00337
 777,0.00013280,-0.02756504,0.00019058,0.00211444,-0.27645192,-0.099197
 72,0.01008244,0.00015892,0.00024873,0.00003663,0.00001386,-0.00010111,
 0.00000555,0.00000894,-0.00000050,-0.00000093,0.30751942,-0.00022712,0
 .00029003,0.00004432,-0.00001354,-0.00048131,-0.00003171,0.00156476,0.
 00023120,-0.00011969,0.00192942,-0.00408984,-0.00044626,0.03823401,0.0
 0518258,-0.00253009,-0.11324541,-0.09109938,0.00555885,-0.00015223,-0.
 00116265,-0.00009896,0.00019486,0.00048608,0.00000530,-0.00004053,0.00
 001881,0.00000484,0.10041775,0.09957261,-0.00001970,0.00002944,-0.0000
 9139,0.00000941,-0.00005729,-0.00002743,0.00020395,0.00002110,0.000232
 17,0.00004732,-0.00056205,0.00035889,0.00471863,0.00031154,0.00012985,
 0.00911639,0.00451027,-0.04965361,0.00001062,-0.00012773,0.00040368,0.
 00002536,0.00002829,0.00018915,-0.00000343,0.00000127,0.00000191,-0.01
 260596,-0.00374453,0.04608129,0.00004868,-0.00094850,-0.00003721,0.000
 83010,0.00061467,-0.00008129,-0.00128204,0.00057992,-0.00050508,0.0051
 3922,0.00115529,0.00163376,-0.00144865,0.01884867,0.02077668,-0.063613
 12,-0.03159940,-0.05379278,0.00047395,-0.00112416,-0.00006907,-0.00082
 549,0.00035288,-0.00044750,0.00004461,-0.00009500,0.00012280,-0.003794
 39,-0.01232806,-0.02453745,0.06439154,0.00037886,0.00028804,-0.0001650
 3,-0.00029659,-0.00012455,0.00024692,0.00109158,-0.00046697,0.00036285
 ,-0.00587628,-0.00024236,0.00018288,0.00793046,-0.02574080,-0.02409693
 ,-0.02764936,-0.10208457,-0.09891130,0.00048977,0.00067216,0.00034228,
 0.00004096,-0.00002977,-0.00003152,-0.00008639,0.00015440,-0.00021279,
 -0.00322962,-0.00428340,-0.01035933,0.02429592,0.12096932,0.00004767,0
 .00017790,-0.00009458,-0.00016898,-0.00000581,0.00008953,0.00065527,-0
 .00004616,-0.00014427,-0.00266534,-0.00053734,0.00059755,0.00664510,-0
 .00545558,0.00320102,-0.04945978,-0.10239957,-0.23492553,0.00006869,-0
 .00103903,-0.00013415,-0.00005678,0.00047674,0.00005771,-0.00006830,0.
 00008537,-0.00003371,0.00034269,0.00241319,0.00257930,0.05130748,0.117
 03211,0.24820675,0.00003830,-0.00095771,-0.00011471,0.00085666,0.00059
 841,0.00004609,-0.00126112,0.00049288,0.00074491,0.00514826,0.00147128
 ,-0.00214534,-0.00504562,0.02168154,-0.01646024,-0.05258390,-0.0202812
 3,0.02510084,0.00045671,-0.00094379,-0.00015424,-0.00073189,0.00020652
 ,0.00060187,0.00003283,-0.00008607,-0.00014396,-0.00027022,-0.01588056
 ,0.02309779,0.00136024,0.00313604,-0.00699407,0.05357264,0.00040780,0.
 00027785,0.00015564,-0.00034566,-0.00008501,-0.00021837,0.00108737,-0.
 00040081,-0.00056615,-0.00610904,-0.00031561,0.00059730,0.01180060,-0.
 02888467,0.01792262,-0.01632148,-0.13244951,0.11727999,0.00044930,0.00
 055672,-0.00031831,0.00002951,0.00003445,0.00002877,-0.00005970,0.0001
 3117,0.00024573,-0.00169627,-0.00541563,0.00986702,0.00036943,0.010547
 80,-0.01151217,0.01060368,0.15553404,-0.00001459,0.00001511,-0.0000726
 9,0.00000792,-0.00010662,0.00002607,-0.00034251,-0.00006986,-0.0002277
 7,0.00116147,0.00022106,0.00067514,-0.00376305,-0.00227415,0.00991774,
 0.02130338,0.12136698,-0.21561560,-0.00008510,0.00128521,0.00000307,0.
 00017550,-0.00051452,-0.00010370,0.00004966,-0.00004965,0.00000011,-0.
 00017872,-0.00117049,0.00019814,0.00413129,0.01538526,-0.01925456,-0.0
 2227322,-0.13335779,0.22448352,-0.00586768,-0.00078660,0.00079681,-0.0
 0000017,-0.00108410,-0.00013274,0.00056284,-0.00268570,0.00016388,0.01
 119860,-0.00986891,-0.00129921,-0.00032216,0.00175870,-0.00006110,-0.0
 0241462,-0.00157119,0.00005387,-0.13770176,0.13031099,0.01721418,-0.01
 457136,0.02529930,0.00306431,0.00039582,-0.00069507,-0.00008416,0.0000
 4981,-0.00051129,-0.00007206,-0.00131261,-0.00028192,0.00027259,-0.001
 53931,-0.00027389,-0.00011320,0.15008456,-0.00091731,0.00206074,-0.000
 16379,-0.00105780,-0.00009805,0.00012579,-0.00319943,-0.00340613,-0.00
 035636,0.01875229,-0.01607217,-0.00274979,0.00049064,0.00129177,0.0002
 4140,0.00099424,-0.00075549,-0.00011107,0.12836699,-0.25806337,-0.0255
 7642,-0.00464683,0.00454741,0.00048077,0.00087998,-0.00082026,-0.00011
 776,-0.00000929,0.00074811,0.00008375,-0.00012548,0.00032387,0.0008364
 6,-0.00005948,0.00044909,-0.00075420,-0.13976075,0.26904447,0.00078831
 ,-0.00017313,0.00533848,-0.00013196,0.00012761,-0.00074093,0.00012909,
 -0.00039573,0.00515898,0.00068749,-0.00058458,0.00299543,-0.00014783,0
 .00014567,-0.00269936,0.00023456,0.00007919,-0.00022664,0.01708106,-0.
 02572109,-0.03299336,0.00098119,-0.00178262,0.00248630,0.00002520,0.00
 000130,-0.00008206,-0.00003760,0.00012230,-0.00044070,0.00141658,0.000
 17902,-0.00015871,-0.00123215,-0.00006996,-0.00006133,-0.01943892,0.02
 778563,0.02490365,0.00940418,0.01433394,0.00070321,-0.00126628,0.00332
 247,0.00031424,-0.00083683,-0.00010055,-0.00004241,-0.00466913,0.00069
 145,0.00057700,-0.00110552,-0.00156031,-0.00002237,0.00046534,-0.00036
 314,-0.00004668,-0.00923860,-0.02818333,-0.00065581,-0.09991016,-0.103
 70314,-0.00213773,-0.00001110,-0.00002920,0.00019163,-0.00002925,0.000
 05794,0.00000914,-0.00001203,0.00005656,0.00007376,-0.00003360,0.00005
 836,-0.00005883,0.00143805,0.00029223,-0.00035502,0.10580491,-0.009804
 77,-0.02061417,-0.00107618,0.00262557,-0.00418970,-0.00047873,0.000621
 29,0.00074027,0.00009563,0.00017623,0.00235166,-0.00001186,0.00002557,
 -0.00006628,-0.00000937,0.00013536,-0.00007873,-0.00002715,0.00176540,
 -0.00003956,-0.00069642,-0.11083159,-0.27743967,-0.00866300,-0.0000013
 7,-0.00005365,-0.00018133,-0.00001116,0.00000278,-0.00000174,0.0000038
 3,0.00001682,-0.00002611,0.00001850,0.00002013,0.00002367,0.00015044,0
 .00075002,0.00028639,0.11512672,0.29860007,-0.00097688,-0.00289370,0.0
 0538223,0.00026342,-0.00053615,-0.00021977,0.00000451,0.00015323,-0.00
 129959,0.00054355,-0.00005319,0.00228124,0.00008505,0.00010872,0.00003
 433,-0.00001143,0.00000995,0.00017414,0.00143131,0.00156446,0.00805479
 ,-0.00263198,-0.00919936,-0.03311015,0.00019399,-0.00017991,0.00252987
 ,0.00000458,-0.00000708,0.00003875,0.00008180,0.00004558,0.00001365,-0
 .00007356,-0.00005432,0.00003185,-0.00036424,0.00027559,-0.00347975,0.
 00144989,0.01076618,0.01956841\\0.00000315,-0.00002616,0.00000089,0.00
 002460,0.00001760,-0.00000248,0.00000657,0.00001756,-0.00000015,0.0000
 2930,-0.00003107,0.00000845,-0.00003324,-0.00001135,-0.00001701,0.0000
 1020,-0.00000414,0.00001049,0.00001766,0.00003907,-0.00000198,-0.00000
 929,-0.00002266,-0.00000217,-0.00001943,0.00000879,0.00000418,-0.00000
 217,0.00000111,0.00000087,0.00000085,0.00000204,-0.00000151,-0.0000027
 0,0.00000031,-0.00000154,-0.00000594,-0.00000063,0.00000019,-0.0000195
 7,0.00000950,0.00000176\\\@


 WERE I TO AWAIT PERFECTION, MY BOOK WOULD NEVER BE FINISHED.
                                    -- HISTORY OF CHINESE WRITING

                                       TAI T'UNG, 13TH CENTURY
 Job cpu time:       0 days  1 hours 36 minutes 31.7 seconds.
 Elapsed time:       0 days  0 hours 13 minutes 47.5 seconds.
 File lengths (MBytes):  RWF=    154 Int=      0 D2E=      0 Chk=      7 Scr=      1
 Normal termination of Gaussian 16 at Sat Jun 27 00:24:12 2020.
