 Entering Gaussian System, Link 0=/home/ubuntu/g16/g16
 Input=t-4-NO2C6H3_UB3LYP-aug-cc-pVDZ-Opt.gjf
 Output=t-4-NO2C6H3_UB3LYP-aug-cc-pVDZ-Opt.log
 Initial command:
 /home/ubuntu/g16/l1.exe "/home/ubuntu/g16/Gau-9766.inp" -scrdir="/home/ubuntu/g16/"
 Entering Link 1 = /home/ubuntu/g16/l1.exe PID=      9768.
  
 Copyright (c) 1988,1990,1992,1993,1995,1998,2003,2009,2016,
            Gaussian, Inc.  All Rights Reserved.
  
 This is part of the Gaussian(R) 16 program.  It is based on
 the Gaussian(R) 09 system (copyright 2009, Gaussian, Inc.),
 the Gaussian(R) 03 system (copyright 2003, Gaussian, Inc.),
 the Gaussian(R) 98 system (copyright 1998, Gaussian, Inc.),
 the Gaussian(R) 94 system (copyright 1995, Gaussian, Inc.),
 the Gaussian 92(TM) system (copyright 1992, Gaussian, Inc.),
 the Gaussian 90(TM) system (copyright 1990, Gaussian, Inc.),
 the Gaussian 88(TM) system (copyright 1988, Gaussian, Inc.),
 the Gaussian 86(TM) system (copyright 1986, Carnegie Mellon
 University), and the Gaussian 82(TM) system (copyright 1983,
 Carnegie Mellon University). Gaussian is a federally registered
 trademark of Gaussian, Inc.
  
 This software contains proprietary and confidential information,
 including trade secrets, belonging to Gaussian, Inc.
  
 This software is provided under written license and may be
 used, copied, transmitted, or stored only in accord with that
 written license.
  
 The following legend is applicable only to US Government
 contracts under FAR:
  
                    RESTRICTED RIGHTS LEGEND
  
 Use, reproduction and disclosure by the US Government is
 subject to restrictions as set forth in subparagraphs (a)
 and (c) of the Commercial Computer Software - Restricted
 Rights clause in FAR 52.227-19.
  
 Gaussian, Inc.
 340 Quinnipiac St., Bldg. 40, Wallingford CT 06492
  
  
 ---------------------------------------------------------------
 Warning -- This program may not be used in any manner that
 competes with the business of Gaussian, Inc. or will provide
 assistance to any competitor of Gaussian, Inc.  The licensee
 of this program is prohibited from giving any competitor of
 Gaussian, Inc. access to this program.  By using this program,
 the user acknowledges that Gaussian, Inc. is engaged in the
 business of creating and licensing software in the field of
 computational chemistry and represents and warrants to the
 licensee that it is not a competitor of Gaussian, Inc. and that
 it will not use this program in any manner prohibited above.
 ---------------------------------------------------------------
  

 Cite this work as:
 Gaussian 16, Revision A.03,
 M. J. Frisch, G. W. Trucks, H. B. Schlegel, G. E. Scuseria, 
 M. A. Robb, J. R. Cheeseman, G. Scalmani, V. Barone, 
 G. A. Petersson, H. Nakatsuji, X. Li, M. Caricato, A. V. Marenich, 
 J. Bloino, B. G. Janesko, R. Gomperts, B. Mennucci, H. P. Hratchian, 
 J. V. Ortiz, A. F. Izmaylov, J. L. Sonnenberg, D. Williams-Young, 
 F. Ding, F. Lipparini, F. Egidi, J. Goings, B. Peng, A. Petrone, 
 T. Henderson, D. Ranasinghe, V. G. Zakrzewski, J. Gao, N. Rega, 
 G. Zheng, W. Liang, M. Hada, M. Ehara, K. Toyota, R. Fukuda, 
 J. Hasegawa, M. Ishida, T. Nakajima, Y. Honda, O. Kitao, H. Nakai, 
 T. Vreven, K. Throssell, J. A. Montgomery, Jr., J. E. Peralta, 
 F. Ogliaro, M. J. Bearpark, J. J. Heyd, E. N. Brothers, K. N. Kudin, 
 V. N. Staroverov, T. A. Keith, R. Kobayashi, J. Normand, 
 K. Raghavachari, A. P. Rendell, J. C. Burant, S. S. Iyengar, 
 J. Tomasi, M. Cossi, J. M. Millam, M. Klene, C. Adamo, R. Cammi, 
 J. W. Ochterski, R. L. Martin, K. Morokuma, O. Farkas, 
 J. B. Foresman, and D. J. Fox, Gaussian, Inc., Wallingford CT, 2016.
 
 ******************************************
 Gaussian 16:  ES64L-G16RevA.03 25-Dec-2016
                27-Jun-2020 
 ******************************************
 %chk=t-4-NO2C6H3_UB3LYP-aug-cc-pVDZ-Opt.chk
 %mem=500MW
 %nproc=7
 Will use up to    7 processors via shared memory.
 ----------------------------------------------------------------------
 #p opt=(maxcycles=777) freq ub3lyp/aug-cc-pVDZ pop=(Bonding,AllOrbital
 s,mk,no,nboread)
 ----------------------------------------------------------------------
 1/6=777,18=20,19=15,26=3,38=1/1,3;
 2/9=110,12=2,17=6,18=5,40=1/2;
 3/5=16,7=10,11=2,25=1,30=1,71=1,74=-5,116=2/1,2,3;
 4//1;
 5/5=2,38=5/2;
 6/7=2,8=2,9=2,10=2,15=8,20=1,22=-1,27=20,28=1,31=1,40=2,96=-1/1,2,7;
 7//1,2,3,16;
 1/6=777,18=20,19=15,26=3/3(2);
 2/9=110/2;
 99//99;
 2/9=110/2;
 3/5=16,7=10,11=2,25=1,30=1,71=1,74=-5,116=2/1,2,3;
 4/5=5,16=3,69=1/1;
 5/5=2,38=5/2;
 7//1,2,3,16;
 1/6=777,18=20,19=15,26=3/3(-5);
 2/9=110/2;
 6/7=2,8=2,9=2,10=2,15=8,19=2,20=1,22=-1,27=20,28=1,31=1,40=2,96=-1/1,2,7;
 99/9=1/99;
 Leave Link    1 at Sat Jun 27 01:48:00 2020, MaxMem=   524288000 cpu:               0.3 elap:               0.0
 (Enter /home/ubuntu/g16/l101.exe)
 ------------------------------
 t-4-NO2C6H3_UB3LYP-aug-cc-pVDZ
 ------------------------------
 Symbolic Z-matrix:
 Charge =  0 Multiplicity = 3
 C                    -1.20773  -0.42203  -0.01313 
 C                    -0.7428    0.73599  -0.11701 
 C                     0.59006   1.09983  -0.15398 
 C                     1.39097  -0.06365  -0.05632 
 N                     2.86004   0.11421  -0.07998 
 O                     3.29026   1.26034  -0.1753 
 O                     3.56387  -0.88936  -0.00413 
 C                     0.88055  -1.37326   0.06134 
 C                    -0.50717  -1.61646   0.08898 
 H                     1.02273   2.09158  -0.2435 
 H                     1.58476  -2.19932   0.13357 
 H                    -0.92427  -2.61624   0.18201 
 
 ITRead=  0  0  0  0  0  0  0  0  0  0  0  0
 MicOpt= -1 -1 -1 -1 -1 -1 -1 -1 -1 -1 -1 -1
 NAtoms=     12 NQM=       12 NQMF=       0 NMMI=      0 NMMIF=      0
                NMic=       0 NMicF=      0.
                    Isotopes and Nuclear Properties:
 (Nuclear quadrupole moments (NQMom) in fm**2, nuclear magnetic moments (NMagM)
  in nuclear magnetons)

  Atom         1           2           3           4           5           6           7           8           9          10
 IAtWgt=          12          12          12          12          14          16          16          12          12           1
 AtmWgt=  12.0000000  12.0000000  12.0000000  12.0000000  14.0030740  15.9949146  15.9949146  12.0000000  12.0000000   1.0078250
 NucSpn=           0           0           0           0           2           0           0           0           0           1
 AtZEff=  -0.0000000  -0.0000000  -0.0000000  -0.0000000  -0.0000000  -0.0000000  -0.0000000  -0.0000000  -0.0000000  -0.0000000
 NQMom=    0.0000000   0.0000000   0.0000000   0.0000000   2.0440000   0.0000000   0.0000000   0.0000000   0.0000000   0.0000000
 NMagM=    0.0000000   0.0000000   0.0000000   0.0000000   0.4037610   0.0000000   0.0000000   0.0000000   0.0000000   2.7928460
 AtZNuc=   6.0000000   6.0000000   6.0000000   6.0000000   7.0000000   8.0000000   8.0000000   6.0000000   6.0000000   1.0000000

  Atom        11          12
 IAtWgt=           1           1
 AtmWgt=   1.0078250   1.0078250
 NucSpn=           1           1
 AtZEff=  -0.0000000  -0.0000000
 NQMom=    0.0000000   0.0000000
 NMagM=    2.7928460   2.7928460
 AtZNuc=   1.0000000   1.0000000
 Leave Link  101 at Sat Jun 27 01:48:01 2020, MaxMem=   524288000 cpu:               1.1 elap:               0.2
 (Enter /home/ubuntu/g16/l103.exe)

 GradGradGradGradGradGradGradGradGradGradGradGradGradGradGradGradGradGrad
 Berny optimization.
 Initialization pass.
                           ----------------------------
                           !    Initial Parameters    !
                           ! (Angstroms and Degrees)  !
 --------------------------                            --------------------------
 ! Name  Definition              Value          Derivative Info.                !
 --------------------------------------------------------------------------------
 ! R1    R(1,2)                  1.2522         estimate D2E/DX2                !
 ! R2    R(1,9)                  1.3885         estimate D2E/DX2                !
 ! R3    R(2,3)                  1.3821         estimate D2E/DX2                !
 ! R4    R(3,4)                  1.4159         estimate D2E/DX2                !
 ! R5    R(3,10)                 1.0857         estimate D2E/DX2                !
 ! R6    R(4,5)                  1.48           estimate D2E/DX2                !
 ! R7    R(4,8)                  1.4105         estimate D2E/DX2                !
 ! R8    R(5,6)                  1.2279         estimate D2E/DX2                !
 ! R9    R(5,7)                  1.2281         estimate D2E/DX2                !
 ! R10   R(8,9)                  1.4091         estimate D2E/DX2                !
 ! R11   R(8,11)                 1.0879         estimate D2E/DX2                !
 ! R12   R(9,12)                 1.0873         estimate D2E/DX2                !
 ! A1    A(2,1,9)              127.9023         estimate D2E/DX2                !
 ! A2    A(1,2,3)              127.1377         estimate D2E/DX2                !
 ! A3    A(2,3,4)              109.1073         estimate D2E/DX2                !
 ! A4    A(2,3,10)             128.8273         estimate D2E/DX2                !
 ! A5    A(4,3,10)             122.0653         estimate D2E/DX2                !
 ! A6    A(3,4,5)              117.4928         estimate D2E/DX2                !
 ! A7    A(3,4,8)              124.3349         estimate D2E/DX2                !
 ! A8    A(5,4,8)              118.1722         estimate D2E/DX2                !
 ! A9    A(4,5,6)              117.4641         estimate D2E/DX2                !
 ! A10   A(4,5,7)              118.0133         estimate D2E/DX2                !
 ! A11   A(6,5,7)              124.5225         estimate D2E/DX2                !
 ! A12   A(4,8,9)              121.2154         estimate D2E/DX2                !
 ! A13   A(4,8,11)             118.4447         estimate D2E/DX2                !
 ! A14   A(9,8,11)             120.3397         estimate D2E/DX2                !
 ! A15   A(1,9,8)              110.3023         estimate D2E/DX2                !
 ! A16   A(1,9,12)             127.1389         estimate D2E/DX2                !
 ! A17   A(8,9,12)             122.5585         estimate D2E/DX2                !
 ! D1    D(9,1,2,3)             -0.038          estimate D2E/DX2                !
 ! D2    D(2,1,9,8)             -0.0137         estimate D2E/DX2                !
 ! D3    D(2,1,9,12)           179.7842         estimate D2E/DX2                !
 ! D4    D(1,2,3,4)              0.0888         estimate D2E/DX2                !
 ! D5    D(1,2,3,10)           179.971          estimate D2E/DX2                !
 ! D6    D(2,3,4,5)            179.9014         estimate D2E/DX2                !
 ! D7    D(2,3,4,8)             -0.098          estimate D2E/DX2                !
 ! D8    D(10,3,4,5)             0.0097         estimate D2E/DX2                !
 ! D9    D(10,3,4,8)          -179.9898         estimate D2E/DX2                !
 ! D10   D(3,4,5,6)              0.3967         estimate D2E/DX2                !
 ! D11   D(3,4,5,7)           -179.5622         estimate D2E/DX2                !
 ! D12   D(8,4,5,6)           -179.6039         estimate D2E/DX2                !
 ! D13   D(8,4,5,7)              0.4373         estimate D2E/DX2                !
 ! D14   D(3,4,8,9)              0.0612         estimate D2E/DX2                !
 ! D15   D(3,4,8,11)          -179.7831         estimate D2E/DX2                !
 ! D16   D(5,4,8,9)           -179.9382         estimate D2E/DX2                !
 ! D17   D(5,4,8,11)             0.2175         estimate D2E/DX2                !
 ! D18   D(4,8,9,1)              0.0009         estimate D2E/DX2                !
 ! D19   D(4,8,9,12)          -179.808          estimate D2E/DX2                !
 ! D20   D(11,8,9,1)           179.8423         estimate D2E/DX2                !
 ! D21   D(11,8,9,12)            0.0334         estimate D2E/DX2                !
 --------------------------------------------------------------------------------
 Trust Radius=3.00D-01 FncErr=1.00D-07 GrdErr=1.00D-06 EigMax=2.50D+02 EigMin=1.00D-04
 Number of steps in this run=    100 maximum allowed number of steps=    100.
 GradGradGradGradGradGradGradGradGradGradGradGradGradGradGradGradGradGrad

 Leave Link  103 at Sat Jun 27 01:48:01 2020, MaxMem=   524288000 cpu:               0.0 elap:               0.0
 (Enter /home/ubuntu/g16/l202.exe)
                          Input orientation:                          
 ---------------------------------------------------------------------
 Center     Atomic      Atomic             Coordinates (Angstroms)
 Number     Number       Type             X           Y           Z
 ---------------------------------------------------------------------
      1          6           0       -1.207730   -0.422030   -0.013130
      2          6           0       -0.742800    0.735990   -0.117010
      3          6           0        0.590060    1.099830   -0.153980
      4          6           0        1.390970   -0.063650   -0.056320
      5          7           0        2.860040    0.114210   -0.079980
      6          8           0        3.290260    1.260340   -0.175300
      7          8           0        3.563870   -0.889360   -0.004130
      8          6           0        0.880550   -1.373260    0.061340
      9          6           0       -0.507170   -1.616460    0.088980
     10          1           0        1.022730    2.091580   -0.243500
     11          1           0        1.584760   -2.199320    0.133570
     12          1           0       -0.924270   -2.616240    0.182010
 ---------------------------------------------------------------------
                    Distance matrix (angstroms):
                    1          2          3          4          5
     1  C    0.000000
     2  C    1.252183   0.000000
     3  C    2.359649   1.382122   0.000000
     4  C    2.623651   2.279492   1.415867   0.000000
     5  N    4.103508   3.656287   2.475830   1.479987   0.000000
     6  O    4.805058   4.067421   2.705050   2.318277   1.227921
     7  O    4.794439   4.604553   3.580905   2.325084   1.228122
     8  C    2.295931   2.667585   2.499384   1.410479   2.480105
     9  C    1.388479   2.373178   2.939587   2.456678   3.789706
    10  H    3.368421   2.229511   1.085719   2.194460   2.704152
    11  H    3.313349   3.754513   3.457818   2.152835   2.650352
    12  H    2.221033   3.370429   4.026818   3.454396   4.673863
                    6          7          8          9         10
     6  O    0.000000
     7  O    2.173792   0.000000
     8  C    3.577506   2.727389   0.000000
     9  C    4.771404   4.136509   1.409141   0.000000
    10  H    2.416051   3.924372   3.481129   4.025009   0.000000
    11  H    3.869545   2.377358   1.087890   2.172069   4.343948
    12  H    5.737404   4.812501   2.194752   1.087284   5.112283
                   11         12
    11  H    0.000000
    12  H    2.543895   0.000000
 Stoichiometry    C6H3NO2(3)
 Framework group  C1[X(C6H3NO2)]
 Deg. of freedom    30
 Full point group                 C1      NOp   1
 Largest Abelian subgroup         C1      NOp   1
 Largest concise Abelian subgroup C1      NOp   1
                         Standard orientation:                         
 ---------------------------------------------------------------------
 Center     Atomic      Atomic             Coordinates (Angstroms)
 Number     Number       Type             X           Y           Z
 ---------------------------------------------------------------------
      1          6           0        2.487097   -0.225607   -0.001333
      2          6           0        1.796528   -1.270151   -0.003105
      3          6           0        0.417238   -1.358581   -0.001527
      4          6           0       -0.130877   -0.053113    0.000460
      5          7           0       -1.605850    0.068599    0.000108
      6          8           0       -2.259843   -0.970657    0.005657
      7          8           0       -2.091551    1.196577   -0.006464
      8          6           0        0.635042    1.131291    0.002728
      9          6           0        2.043581    1.090127    0.001891
     10          1           0       -0.207972   -2.246215   -0.003410
     11          1           0        0.113185    2.085830    0.007758
     12          1           0        2.655238    1.989038    0.006668
 ---------------------------------------------------------------------
 Rotational constants (GHZ):           4.1056855           1.3837250           1.0349338
 Leave Link  202 at Sat Jun 27 01:48:01 2020, MaxMem=   524288000 cpu:               0.0 elap:               0.0
 (Enter /home/ubuntu/g16/l301.exe)
 Standard basis: Aug-CC-pVDZ (5D, 7F)
 Ernie: Thresh=  0.10000D-02 Tol=  0.10000D-05 Strict=F.
 Ernie:  18 primitive shells out of 246 were deleted.
 There are   252 symmetry adapted cartesian basis functions of A   symmetry.
 There are   234 symmetry adapted basis functions of A   symmetry.
   234 basis functions,   420 primitive gaussians,   252 cartesian basis functions
    32 alpha electrons       30 beta electrons
       nuclear repulsion energy       391.7370920473 Hartrees.
 IExCor=  402 DFT=T Ex+Corr=B3LYP ExCW=0 ScaHFX=  0.200000
 ScaDFX=  0.800000  0.720000  1.000000  0.810000 ScalE2=  1.000000  1.000000
 IRadAn=      5 IRanWt=     -1 IRanGd=            0 ICorTp=0 IEmpDi=  4
 NAtoms=   12 NActive=   12 NUniq=   12 SFac= 1.00D+00 NAtFMM=   60 NAOKFM=F Big=F
 Integral buffers will be    131072 words long.
 Raffenetti 2 integral format.
 Two-electron integral symmetry is turned on.
 Leave Link  301 at Sat Jun 27 01:48:01 2020, MaxMem=   524288000 cpu:               0.2 elap:               0.0
 (Enter /home/ubuntu/g16/l302.exe)
 NPDir=0 NMtPBC=     1 NCelOv=     1 NCel=       1 NClECP=     1 NCelD=      1
         NCelK=      1 NCelE2=     1 NClLst=     1 CellRange=     0.0.
 One-electron integrals computed using PRISM.
 One-electron integral symmetry used in STVInt
 NBasis=   234 RedAO= T EigKep=  3.52D-06  NBF=   234
 NBsUse=   234 1.00D-06 EigRej= -1.00D+00 NBFU=   234
 Precomputing XC quadrature grid using
 IXCGrd= 4 IRadAn=           5 IRanWt=          -1 IRanGd=           0 AccXCQ= 0.00D+00.
 Generated NRdTot=       0 NPtTot=           0 NUsed=           0 NTot=          32
 NSgBfM=   252   252   252   252   252 MxSgAt=    12 MxSgA2=    12.
 Leave Link  302 at Sat Jun 27 01:48:01 2020, MaxMem=   524288000 cpu:               1.9 elap:               0.3
 (Enter /home/ubuntu/g16/l303.exe)
 DipDrv:  MaxL=1.
 Leave Link  303 at Sat Jun 27 01:48:01 2020, MaxMem=   524288000 cpu:               0.3 elap:               0.0
 (Enter /home/ubuntu/g16/l401.exe)
 ExpMin= 2.97D-02 ExpMax= 1.17D+04 ExpMxC= 4.01D+02 IAcc=3 IRadAn=         5 AccDes= 0.00D+00
 Harris functional with IExCor=  402 and IRadAn=       5 diagonalized for initial guess.
 HarFok:  IExCor=  402 AccDes= 0.00D+00 IRadAn=         5 IDoV= 1 UseB2=F ITyADJ=14
 ICtDFT=  3500011 ScaDFX=  1.000000  1.000000  1.000000  1.000000
 FoFCou: FMM=F IPFlag=           0 FMFlag=      100000 FMFlg1=           0
         NFxFlg=           0 DoJE=T BraDBF=F KetDBF=T FulRan=T
         wScrn=  0.000000 ICntrl=       500 IOpCl=  0 I1Cent=   200000004 NGrid=           0
         NMat0=    1 NMatS0=      1 NMatT0=    0 NMatD0=    1 NMtDS0=    0 NMtDT0=    0
 Petite list used in FoFCou.
 Harris En= -435.360132199343    
 JPrj=0 DoOrth=F DoCkMO=F.
 Initial guess <Sx>= 0.0000 <Sy>= 0.0000 <Sz>= 1.0000 <S**2>= 2.0000 S= 1.0000
 Leave Link  401 at Sat Jun 27 01:48:03 2020, MaxMem=   524288000 cpu:              12.4 elap:               1.8
 (Enter /home/ubuntu/g16/l502.exe)
 Integral symmetry usage will be decided dynamically.
 UHF open shell SCF:
 Using DIIS extrapolation, IDIIS=  1040.
 NGot=   524288000 LenX=   524156866 LenY=   524092921
 Requested convergence on RMS density matrix=1.00D-08 within 128 cycles.
 Requested convergence on MAX density matrix=1.00D-06.
 Requested convergence on             energy=1.00D-06.
 No special actions if energy rises.
 Fock matrices will be formed incrementally for  20 cycles.

 Cycle   1  Pass 1  IDiag  1:
 FoFJK:  IHMeth= 1 ICntrl=       0 DoSepK=F KAlg= 0 I1Cent=           0 FoldK=F
 IRaf= 990000000 NMat=       1 IRICut=       1 DoRegI=T DoRafI=F ISym2E= 0 IDoP0=0 IntGTp=1.
 FoFCou: FMM=F IPFlag=           0 FMFlag=      100000 FMFlg1=           0
         NFxFlg=           0 DoJE=F BraDBF=F KetDBF=F FulRan=T
         wScrn=  0.000000 ICntrl=         0 IOpCl=  1 I1Cent=           0 NGrid=           0
         NMat0=    1 NMatS0=      1 NMatT0=    0 NMatD0=    1 NMtDS0=    0 NMtDT0=    0
 Symmetry not used in FoFCou.
 E= -434.831483718787    
 DIIS: error= 3.27D-02 at cycle   1 NSaved=   1.
 NSaved= 1 IEnMin= 1 EnMin= -434.831483718787     IErMin= 1 ErrMin= 3.27D-02
 ErrMax= 3.27D-02  0.00D+00 EMaxC= 1.00D-01 BMatC= 1.55D+00 BMatP= 1.55D+00
 IDIUse=3 WtCom= 6.73D-01 WtEn= 3.27D-01
 Coeff-Com:  0.100D+01
 Coeff-En:   0.100D+01
 Coeff:      0.100D+01
 Gap=    -0.235 Goal=   None    Shift=    0.000
 Gap=    -0.192 Goal=   None    Shift=    0.000
 GapD=   -0.235 DampG=0.250 DampE=0.500 DampFc=0.2500 IDamp=-1.
 Damping current iteration by 2.50D-01
 RMSDP=5.24D-02 MaxDP=4.84D+00              OVMax= 9.53D-01

 Cycle   2  Pass 1  IDiag  1:
 RMSU=  1.24D-02    CP:  9.45D-01
 E= -434.885192453422     Delta-E=       -0.053708734635 Rises=F Damp=T
 DIIS: error= 1.45D-02 at cycle   2 NSaved=   2.
 NSaved= 2 IEnMin= 2 EnMin= -434.885192453422     IErMin= 2 ErrMin= 1.45D-02
 ErrMax= 1.45D-02  0.00D+00 EMaxC= 1.00D-01 BMatC= 2.39D-01 BMatP= 1.55D+00
 IDIUse=3 WtCom= 8.55D-01 WtEn= 1.45D-01
 Coeff-Com:  0.120D+00 0.880D+00
 Coeff-En:   0.453D+00 0.547D+00
 Coeff:      0.168D+00 0.832D+00
 Gap=     0.364 Goal=   None    Shift=    0.000
 Gap=     0.610 Goal=   None    Shift=    0.000
 RMSDP=2.48D-02 MaxDP=1.21D+00 DE=-5.37D-02 OVMax= 9.82D-01

 Cycle   3  Pass 1  IDiag  1:
 RMSU=  1.36D-02    CP:  6.82D-01  5.41D-01
 E= -435.044805595872     Delta-E=       -0.159613142450 Rises=F Damp=F
 DIIS: error= 2.92D-02 at cycle   3 NSaved=   3.
 NSaved= 3 IEnMin= 3 EnMin= -435.044805595872     IErMin= 2 ErrMin= 1.45D-02
 ErrMax= 2.92D-02  0.00D+00 EMaxC= 1.00D-01 BMatC= 7.74D-01 BMatP= 2.39D-01
 IDIUse=2 WtCom= 0.00D+00 WtEn= 1.00D+00
 Coeff-En:   0.000D+00 0.332D+00 0.668D+00
 Coeff:      0.000D+00 0.332D+00 0.668D+00
 Gap=    -0.168 Goal=   None    Shift=    0.000
 Gap=    -0.212 Goal=   None    Shift=    0.000
 RMSDP=1.14D-02 MaxDP=4.38D-01 DE=-1.60D-01 OVMax= 8.15D-01

 Cycle   4  Pass 1  IDiag  1:
 RMSU=  9.98D-03    CP:  7.09D-01  5.35D-01  6.29D-01
 E= -433.678366066159     Delta-E=        1.366439529713 Rises=F Damp=F
 DIIS: error= 6.91D-02 at cycle   4 NSaved=   4.
 NSaved= 4 IEnMin= 3 EnMin= -435.044805595872     IErMin= 2 ErrMin= 1.45D-02
 ErrMax= 6.91D-02  0.00D+00 EMaxC= 1.00D-01 BMatC= 4.53D+00 BMatP= 2.39D-01
 IDIUse=2 WtCom= 0.00D+00 WtEn= 1.00D+00
 EnCoef did     7 forward-backward iterations
 Coeff-En:   0.139D-01 0.000D+00 0.726D+00 0.260D+00
 Coeff:      0.139D-01 0.000D+00 0.726D+00 0.260D+00
 Gap=     0.155 Goal=   None    Shift=    0.000
 Gap=     0.054 Goal=   None    Shift=    0.000
 RMSDP=5.45D-03 MaxDP=2.03D-01 DE= 1.37D+00 OVMax= 6.44D-01

 Cycle   5  Pass 1  IDiag  1:
 RMSU=  3.99D-03    CP:  7.02D-01  4.00D-01  5.74D-01  6.80D-01
 E= -434.982187517693     Delta-E=       -1.303821451535 Rises=F Damp=F
 DIIS: error= 3.31D-02 at cycle   5 NSaved=   5.
 NSaved= 5 IEnMin= 3 EnMin= -435.044805595872     IErMin= 2 ErrMin= 1.45D-02
 ErrMax= 3.31D-02  0.00D+00 EMaxC= 1.00D-01 BMatC= 1.01D+00 BMatP= 2.39D-01
 IDIUse=2 WtCom= 0.00D+00 WtEn= 1.00D+00
 Coeff-En:   0.000D+00 0.000D+00 0.527D+00 0.000D+00 0.473D+00
 Coeff:      0.000D+00 0.000D+00 0.527D+00 0.000D+00 0.473D+00
 Gap=    -0.018 Goal=   None    Shift=    0.000
 Gap=     0.061 Goal=   None    Shift=    0.000
 RMSDP=6.92D-03 MaxDP=3.32D-01 DE=-1.30D+00 OVMax= 9.96D-01

 Cycle   6  Pass 1  IDiag  1:
 RMSU=  3.53D-03    CP:  7.05D-01  4.07D-01  7.50D-01  1.77D-01  4.68D-01
 E= -435.378760997726     Delta-E=       -0.396573480033 Rises=F Damp=F
 DIIS: error= 6.44D-03 at cycle   6 NSaved=   6.
 NSaved= 6 IEnMin= 6 EnMin= -435.378760997726     IErMin= 6 ErrMin= 6.44D-03
 ErrMax= 6.44D-03  0.00D+00 EMaxC= 1.00D-01 BMatC= 3.81D-02 BMatP= 2.39D-01
 IDIUse=3 WtCom= 9.36D-01 WtEn= 6.44D-02
 Coeff-Com: -0.910D-01 0.237D+00 0.229D+00-0.467D-01 0.143D+00 0.529D+00
 Coeff-En:   0.000D+00 0.000D+00 0.000D+00 0.000D+00 0.000D+00 0.100D+01
 Coeff:     -0.851D-01 0.222D+00 0.214D+00-0.437D-01 0.134D+00 0.559D+00
 Gap=     0.053 Goal=   None    Shift=    0.000
 Gap=     0.074 Goal=   None    Shift=    0.000
 RMSDP=1.87D-03 MaxDP=9.65D-02 DE=-3.97D-01 OVMax= 1.66D-01

 Cycle   7  Pass 1  IDiag  1:
 RMSU=  1.59D-03    CP:  6.95D-01  4.32D-01  7.77D-01  2.01D-01  4.97D-01
                    CP:  9.20D-01
 E= -435.388492105070     Delta-E=       -0.009731107343 Rises=F Damp=F
 DIIS: error= 3.83D-03 at cycle   7 NSaved=   7.
 NSaved= 7 IEnMin= 7 EnMin= -435.388492105070     IErMin= 7 ErrMin= 3.83D-03
 ErrMax= 3.83D-03  0.00D+00 EMaxC= 1.00D-01 BMatC= 1.99D-02 BMatP= 3.81D-02
 IDIUse=3 WtCom= 9.62D-01 WtEn= 3.83D-02
 Coeff-Com: -0.527D-01 0.133D+00 0.151D+00-0.149D-01 0.356D-01 0.313D+00
 Coeff-Com:  0.436D+00
 Coeff-En:   0.000D+00 0.000D+00 0.000D+00 0.000D+00 0.000D+00 0.000D+00
 Coeff-En:   0.100D+01
 Coeff:     -0.506D-01 0.128D+00 0.145D+00-0.143D-01 0.342D-01 0.301D+00
 Coeff:      0.457D+00
 Gap=     0.073 Goal=   None    Shift=    0.000
 Gap=     0.098 Goal=   None    Shift=    0.000
 RMSDP=8.46D-04 MaxDP=3.77D-02 DE=-9.73D-03 OVMax= 3.00D-02

 Cycle   8  Pass 1  IDiag  1:
 RMSU=  8.16D-04    CP:  6.94D-01  4.32D-01  7.75D-01  2.03D-01  5.27D-01
                    CP:  8.99D-01  1.11D+00
 E= -435.392183207850     Delta-E=       -0.003691102780 Rises=F Damp=F
 DIIS: error= 2.90D-03 at cycle   8 NSaved=   8.
 NSaved= 8 IEnMin= 8 EnMin= -435.392183207850     IErMin= 8 ErrMin= 2.90D-03
 ErrMax= 2.90D-03  0.00D+00 EMaxC= 1.00D-01 BMatC= 9.70D-03 BMatP= 1.99D-02
 IDIUse=3 WtCom= 9.71D-01 WtEn= 2.90D-02
 Coeff-Com: -0.178D-01 0.691D-01 0.102D+00-0.934D-02 0.633D-02 0.153D-01
 Coeff-Com:  0.258D+00 0.577D+00
 Coeff-En:   0.000D+00 0.000D+00 0.000D+00 0.000D+00 0.000D+00 0.000D+00
 Coeff-En:   0.000D+00 0.100D+01
 Coeff:     -0.173D-01 0.671D-01 0.987D-01-0.907D-02 0.615D-02 0.149D-01
 Coeff:      0.250D+00 0.589D+00
 Gap=     0.087 Goal=   None    Shift=    0.000
 Gap=     0.101 Goal=   None    Shift=    0.000
 RMSDP=5.26D-04 MaxDP=1.93D-02 DE=-3.69D-03 OVMax= 3.27D-02

 Cycle   9  Pass 1  IDiag  1:
 RMSU=  4.16D-04    CP:  6.94D-01  4.31D-01  7.73D-01  2.03D-01  5.40D-01
                    CP:  8.73D-01  1.25D+00  1.23D+00
 E= -435.393405513930     Delta-E=       -0.001222306080 Rises=F Damp=F
 DIIS: error= 2.65D-03 at cycle   9 NSaved=   9.
 NSaved= 9 IEnMin= 9 EnMin= -435.393405513930     IErMin= 9 ErrMin= 2.65D-03
 ErrMax= 2.65D-03  0.00D+00 EMaxC= 1.00D-01 BMatC= 7.28D-03 BMatP= 9.70D-03
 IDIUse=3 WtCom= 9.74D-01 WtEn= 2.65D-02
 Coeff-Com:  0.123D-01 0.103D-01 0.546D-01-0.563D-02-0.664D-02-0.149D+00
 Coeff-Com: -0.647D-01 0.551D+00 0.598D+00
 Coeff-En:   0.000D+00 0.000D+00 0.000D+00 0.000D+00 0.000D+00 0.000D+00
 Coeff-En:   0.000D+00 0.982D-01 0.902D+00
 Coeff:      0.120D-01 0.101D-01 0.532D-01-0.548D-02-0.647D-02-0.145D+00
 Coeff:     -0.630D-01 0.539D+00 0.606D+00
 Gap=     0.097 Goal=   None    Shift=    0.000
 Gap=     0.110 Goal=   None    Shift=    0.000
 RMSDP=5.49D-04 MaxDP=1.71D-02 DE=-1.22D-03 OVMax= 1.66D-02

 Cycle  10  Pass 1  IDiag  1:
 RMSU=  3.13D-04    CP:  6.92D-01  4.29D-01  7.67D-01  1.97D-01  5.71D-01
                    CP:  8.70D-01  1.42D+00  1.59D+00  1.14D+00
 E= -435.394715224113     Delta-E=       -0.001309710183 Rises=F Damp=F
 DIIS: error= 1.69D-03 at cycle  10 NSaved=  10.
 NSaved=10 IEnMin=10 EnMin= -435.394715224113     IErMin=10 ErrMin= 1.69D-03
 ErrMax= 1.69D-03  0.00D+00 EMaxC= 1.00D-01 BMatC= 2.41D-03 BMatP= 7.28D-03
 IDIUse=3 WtCom= 9.83D-01 WtEn= 1.69D-02
 Coeff-Com:  0.184D-01-0.113D-01 0.195D-01-0.355D-02-0.555D-02-0.676D-01
 Coeff-Com: -0.187D+00 0.359D-01 0.373D+00 0.828D+00
 Coeff-En:   0.000D+00 0.000D+00 0.000D+00 0.000D+00 0.000D+00 0.000D+00
 Coeff-En:   0.000D+00 0.000D+00 0.000D+00 0.100D+01
 Coeff:      0.181D-01-0.111D-01 0.192D-01-0.349D-02-0.546D-02-0.665D-01
 Coeff:     -0.183D+00 0.352D-01 0.366D+00 0.831D+00
 Gap=     0.102 Goal=   None    Shift=    0.000
 Gap=     0.113 Goal=   None    Shift=    0.000
 RMSDP=3.45D-04 MaxDP=1.47D-02 DE=-1.31D-03 OVMax= 9.25D-03

 Cycle  11  Pass 1  IDiag  1:
 RMSU=  1.77D-04    CP:  6.91D-01  4.28D-01  7.64D-01  1.95D-01  5.85D-01
                    CP:  8.55D-01  1.50D+00  1.87D+00  1.38D+00  1.11D+00
 E= -435.395285622510     Delta-E=       -0.000570398398 Rises=F Damp=F
 DIIS: error= 1.11D-03 at cycle  11 NSaved=  11.
 NSaved=11 IEnMin=11 EnMin= -435.395285622510     IErMin=11 ErrMin= 1.11D-03
 ErrMax= 1.11D-03  0.00D+00 EMaxC= 1.00D-01 BMatC= 7.53D-04 BMatP= 2.41D-03
 IDIUse=3 WtCom= 9.89D-01 WtEn= 1.11D-02
 Coeff-Com:  0.111D-01-0.103D-01 0.706D-02-0.135D-02-0.322D-02 0.205D-01
 Coeff-Com: -0.671D-01-0.122D+00 0.378D-02 0.436D+00 0.726D+00
 Coeff-En:   0.000D+00 0.000D+00 0.000D+00 0.000D+00 0.000D+00 0.000D+00
 Coeff-En:   0.000D+00 0.000D+00 0.000D+00 0.000D+00 0.100D+01
 Coeff:      0.110D-01-0.101D-01 0.698D-02-0.133D-02-0.318D-02 0.202D-01
 Coeff:     -0.663D-01-0.121D+00 0.373D-02 0.431D+00 0.729D+00
 Gap=     0.104 Goal=   None    Shift=    0.000
 Gap=     0.113 Goal=   None    Shift=    0.000
 RMSDP=1.45D-04 MaxDP=5.20D-03 DE=-5.70D-04 OVMax= 5.26D-03

 Cycle  12  Pass 1  IDiag  1:
 RMSU=  9.58D-05    CP:  6.91D-01  4.27D-01  7.65D-01  1.92D-01  5.94D-01
                    CP:  8.49D-01  1.51D+00  1.92D+00  1.52D+00  1.23D+00
                    CP:  8.61D-01
 E= -435.395481466960     Delta-E=       -0.000195844449 Rises=F Damp=F
 DIIS: error= 5.29D-04 at cycle  12 NSaved=  12.
 NSaved=12 IEnMin=12 EnMin= -435.395481466960     IErMin=12 ErrMin= 5.29D-04
 ErrMax= 5.29D-04  0.00D+00 EMaxC= 1.00D-01 BMatC= 2.15D-04 BMatP= 7.53D-04
 IDIUse=3 WtCom= 9.95D-01 WtEn= 5.29D-03
 Coeff-Com:  0.163D-02-0.766D-03 0.106D-02-0.180D-03-0.204D-02 0.443D-01
 Coeff-Com:  0.398D-01-0.783D-01-0.171D+00-0.886D-01 0.419D+00 0.834D+00
 Coeff-En:   0.000D+00 0.000D+00 0.000D+00 0.000D+00 0.000D+00 0.000D+00
 Coeff-En:   0.000D+00 0.000D+00 0.000D+00 0.000D+00 0.000D+00 0.100D+01
 Coeff:      0.162D-02-0.762D-03 0.105D-02-0.179D-03-0.203D-02 0.441D-01
 Coeff:      0.396D-01-0.779D-01-0.170D+00-0.882D-01 0.417D+00 0.835D+00
 Gap=     0.106 Goal=   None    Shift=    0.000
 Gap=     0.113 Goal=   None    Shift=    0.000
 RMSDP=9.38D-05 MaxDP=5.34D-03 DE=-1.96D-04 OVMax= 3.25D-03

 Cycle  13  Pass 1  IDiag  1:
 RMSU=  5.05D-05    CP:  6.91D-01  4.26D-01  7.62D-01  1.89D-01  6.00D-01
                    CP:  8.54D-01  1.52D+00  1.94D+00  1.53D+00  1.36D+00
                    CP:  1.02D+00  9.41D-01
 E= -435.395543416079     Delta-E=       -0.000061949119 Rises=F Damp=F
 DIIS: error= 2.31D-04 at cycle  13 NSaved=  13.
 NSaved=13 IEnMin=13 EnMin= -435.395543416079     IErMin=13 ErrMin= 2.31D-04
 ErrMax= 2.31D-04  0.00D+00 EMaxC= 1.00D-01 BMatC= 3.37D-05 BMatP= 2.15D-04
 IDIUse=3 WtCom= 9.98D-01 WtEn= 2.31D-03
 Coeff-Com: -0.351D-03 0.103D-02 0.672D-03-0.828D-04-0.418D-03 0.228D-01
 Coeff-Com:  0.339D-01-0.201D-01-0.108D+00-0.127D+00 0.954D-01 0.463D+00
 Coeff-Com:  0.638D+00
 Coeff-En:   0.000D+00 0.000D+00 0.000D+00 0.000D+00 0.000D+00 0.000D+00
 Coeff-En:   0.000D+00 0.000D+00 0.000D+00 0.000D+00 0.000D+00 0.000D+00
 Coeff-En:   0.100D+01
 Coeff:     -0.350D-03 0.103D-02 0.671D-03-0.826D-04-0.417D-03 0.228D-01
 Coeff:      0.338D-01-0.200D-01-0.107D+00-0.126D+00 0.951D-01 0.462D+00
 Coeff:      0.639D+00
 Gap=     0.106 Goal=   None    Shift=    0.000
 Gap=     0.112 Goal=   None    Shift=    0.000
 RMSDP=3.62D-05 MaxDP=1.95D-03 DE=-6.19D-05 OVMax= 1.58D-03

 Cycle  14  Pass 1  IDiag  1:
 RMSU=  2.51D-05    CP:  6.91D-01  4.26D-01  7.62D-01  1.88D-01  6.03D-01
                    CP:  8.53D-01  1.51D+00  1.95D+00  1.55D+00  1.38D+00
                    CP:  1.07D+00  1.03D+00  8.37D-01
 E= -435.395554633251     Delta-E=       -0.000011217172 Rises=F Damp=F
 DIIS: error= 5.87D-05 at cycle  14 NSaved=  14.
 NSaved=14 IEnMin=14 EnMin= -435.395554633251     IErMin=14 ErrMin= 5.87D-05
 ErrMax= 5.87D-05  0.00D+00 EMaxC= 1.00D-01 BMatC= 3.50D-06 BMatP= 3.37D-05
 IDIUse=1 WtCom= 1.00D+00 WtEn= 0.00D+00
 Coeff-Com: -0.160D-03 0.245D-03 0.573D-05 0.317D-04-0.198D-03 0.138D-03
 Coeff-Com:  0.342D-02 0.686D-02-0.160D-01-0.284D-01-0.458D-01 0.198D-01
 Coeff-Com:  0.292D+00 0.768D+00
 Coeff:     -0.160D-03 0.245D-03 0.573D-05 0.317D-04-0.198D-03 0.138D-03
 Coeff:      0.342D-02 0.686D-02-0.160D-01-0.284D-01-0.458D-01 0.198D-01
 Coeff:      0.292D+00 0.768D+00
 Gap=     0.106 Goal=   None    Shift=    0.000
 Gap=     0.113 Goal=   None    Shift=    0.000
 RMSDP=1.97D-05 MaxDP=6.29D-04 DE=-1.12D-05 OVMax= 6.39D-04

 Cycle  15  Pass 1  IDiag  1:
 RMSU=  8.72D-06    CP:  6.91D-01  4.25D-01  7.61D-01  1.88D-01  6.04D-01
                    CP:  8.53D-01  1.52D+00  1.97D+00  1.56D+00  1.40D+00
                    CP:  1.08D+00  1.05D+00  9.57D-01  9.19D-01
 E= -435.395555721342     Delta-E=       -0.000001088091 Rises=F Damp=F
 DIIS: error= 1.69D-05 at cycle  15 NSaved=  15.
 NSaved=15 IEnMin=15 EnMin= -435.395555721342     IErMin=15 ErrMin= 1.69D-05
 ErrMax= 1.69D-05  0.00D+00 EMaxC= 1.00D-01 BMatC= 2.41D-07 BMatP= 3.50D-06
 IDIUse=1 WtCom= 1.00D+00 WtEn= 0.00D+00
 Coeff-Com: -0.762D-04-0.200D-04 0.710D-04-0.463D-05 0.366D-04-0.145D-02
 Coeff-Com: -0.167D-02 0.455D-02 0.344D-02 0.138D-02-0.256D-01-0.356D-01
 Coeff-Com:  0.613D-01 0.336D+00 0.657D+00
 Coeff:     -0.762D-04-0.200D-04 0.710D-04-0.463D-05 0.366D-04-0.145D-02
 Coeff:     -0.167D-02 0.455D-02 0.344D-02 0.138D-02-0.256D-01-0.356D-01
 Coeff:      0.613D-01 0.336D+00 0.657D+00
 Gap=     0.106 Goal=   None    Shift=    0.000
 Gap=     0.113 Goal=   None    Shift=    0.000
 RMSDP=4.54D-06 MaxDP=1.89D-04 DE=-1.09D-06 OVMax= 1.81D-04

 Cycle  16  Pass 1  IDiag  1:
 RMSU=  3.94D-06    CP:  6.91D-01  4.25D-01  7.62D-01  1.88D-01  6.04D-01
                    CP:  8.53D-01  1.52D+00  1.97D+00  1.56D+00  1.40D+00
                    CP:  1.08D+00  1.05D+00  9.61D-01  9.47D-01  9.76D-01
 E= -435.395555814794     Delta-E=       -0.000000093451 Rises=F Damp=F
 DIIS: error= 8.40D-06 at cycle  16 NSaved=  16.
 NSaved=16 IEnMin=16 EnMin= -435.395555814794     IErMin=16 ErrMin= 8.40D-06
 ErrMax= 8.40D-06  0.00D+00 EMaxC= 1.00D-01 BMatC= 4.91D-08 BMatP= 2.41D-07
 IDIUse=1 WtCom= 1.00D+00 WtEn= 0.00D+00
 Coeff-Com: -0.206D-04 0.145D-04 0.201D-04-0.125D-04 0.647D-04-0.680D-03
 Coeff-Com: -0.116D-02 0.531D-03 0.414D-02 0.433D-02-0.172D-02-0.158D-01
 Coeff-Com: -0.230D-01 0.131D-01 0.257D+00 0.763D+00
 Coeff:     -0.206D-04 0.145D-04 0.201D-04-0.125D-04 0.647D-04-0.680D-03
 Coeff:     -0.116D-02 0.531D-03 0.414D-02 0.433D-02-0.172D-02-0.158D-01
 Coeff:     -0.230D-01 0.131D-01 0.257D+00 0.763D+00
 Gap=     0.106 Goal=   None    Shift=    0.000
 Gap=     0.113 Goal=   None    Shift=    0.000
 RMSDP=2.08D-06 MaxDP=7.45D-05 DE=-9.35D-08 OVMax= 1.53D-04

 Cycle  17  Pass 1  IDiag  1:
 RMSU=  1.74D-06    CP:  6.91D-01  4.25D-01  7.61D-01  1.88D-01  6.04D-01
                    CP:  8.53D-01  1.52D+00  1.97D+00  1.56D+00  1.40D+00
                    CP:  1.08D+00  1.05D+00  9.64D-01  9.63D-01  1.07D+00
                    CP:  9.43D-01
 E= -435.395555850452     Delta-E=       -0.000000035658 Rises=F Damp=F
 DIIS: error= 5.09D-06 at cycle  17 NSaved=  17.
 NSaved=17 IEnMin=17 EnMin= -435.395555850452     IErMin=17 ErrMin= 5.09D-06
 ErrMax= 5.09D-06  0.00D+00 EMaxC= 1.00D-01 BMatC= 1.57D-08 BMatP= 4.91D-08
 IDIUse=1 WtCom= 1.00D+00 WtEn= 0.00D+00
 Coeff-Com:  0.231D-05 0.449D-04 0.713D-05-0.443D-05 0.138D-04 0.832D-04
 Coeff-Com:  0.384D-04-0.913D-03 0.598D-03 0.109D-02 0.613D-02 0.431D-02
 Coeff-Com: -0.214D-01-0.745D-01-0.651D-01 0.281D+00 0.868D+00
 Coeff:      0.231D-05 0.449D-04 0.713D-05-0.443D-05 0.138D-04 0.832D-04
 Coeff:      0.384D-04-0.913D-03 0.598D-03 0.109D-02 0.613D-02 0.431D-02
 Coeff:     -0.214D-01-0.745D-01-0.651D-01 0.281D+00 0.868D+00
 Gap=     0.106 Goal=   None    Shift=    0.000
 Gap=     0.113 Goal=   None    Shift=    0.000
 RMSDP=1.62D-06 MaxDP=7.04D-05 DE=-3.57D-08 OVMax= 1.41D-04

 Cycle  18  Pass 1  IDiag  1:
 RMSU=  1.13D-06    CP:  6.91D-01  4.25D-01  7.61D-01  1.88D-01  6.04D-01
                    CP:  8.53D-01  1.52D+00  1.96D+00  1.56D+00  1.39D+00
                    CP:  1.08D+00  1.05D+00  9.64D-01  9.71D-01  1.10D+00
                    CP:  1.11D+00  1.33D+00
 E= -435.395555869910     Delta-E=       -0.000000019458 Rises=F Damp=F
 DIIS: error= 3.56D-06 at cycle  18 NSaved=  18.
 NSaved=18 IEnMin=18 EnMin= -435.395555869910     IErMin=18 ErrMin= 3.56D-06
 ErrMax= 3.56D-06  0.00D+00 EMaxC= 1.00D-01 BMatC= 4.87D-09 BMatP= 1.57D-08
 IDIUse=1 WtCom= 1.00D+00 WtEn= 0.00D+00
 Coeff-Com: -0.959D-05 0.375D-05 0.523D-06-0.343D-06 0.600D-05 0.344D-03
 Coeff-Com:  0.615D-03-0.202D-03-0.222D-02-0.219D-02 0.663D-04 0.713D-02
 Coeff-Com:  0.122D-01-0.844D-02-0.123D+00-0.366D+00 0.134D+00 0.135D+01
 Coeff:     -0.959D-05 0.375D-05 0.523D-06-0.343D-06 0.600D-05 0.344D-03
 Coeff:      0.615D-03-0.202D-03-0.222D-02-0.219D-02 0.663D-04 0.713D-02
 Coeff:      0.122D-01-0.844D-02-0.123D+00-0.366D+00 0.134D+00 0.135D+01
 Gap=     0.106 Goal=   None    Shift=    0.000
 Gap=     0.113 Goal=   None    Shift=    0.000
 RMSDP=1.66D-06 MaxDP=8.57D-05 DE=-1.95D-08 OVMax= 1.80D-04

 Cycle  19  Pass 1  IDiag  1:
 RMSU=  7.08D-07    CP:  6.91D-01  4.25D-01  7.61D-01  1.88D-01  6.04D-01
                    CP:  8.53D-01  1.52D+00  1.96D+00  1.56D+00  1.39D+00
                    CP:  1.08D+00  1.05D+00  9.66D-01  9.77D-01  1.15D+00
                    CP:  1.24D+00  1.97D+00  1.54D+00
 E= -435.395555883178     Delta-E=       -0.000000013268 Rises=F Damp=F
 DIIS: error= 1.47D-06 at cycle  19 NSaved=  19.
 NSaved=19 IEnMin=19 EnMin= -435.395555883178     IErMin=19 ErrMin= 1.47D-06
 ErrMax= 1.47D-06  0.00D+00 EMaxC= 1.00D-01 BMatC= 1.13D-09 BMatP= 4.87D-09
 IDIUse=1 WtCom= 1.00D+00 WtEn= 0.00D+00
 Coeff-Com:  0.706D-06-0.139D-04-0.375D-05 0.333D-05-0.924D-05-0.500D-04
 Coeff-Com: -0.557D-04 0.299D-03-0.250D-03-0.351D-03-0.188D-02-0.141D-02
 Coeff-Com:  0.615D-02 0.206D-01 0.172D-01-0.983D-01-0.242D+00 0.119D+00
 Coeff-Com:  0.118D+01
 Coeff:      0.706D-06-0.139D-04-0.375D-05 0.333D-05-0.924D-05-0.500D-04
 Coeff:     -0.557D-04 0.299D-03-0.250D-03-0.351D-03-0.188D-02-0.141D-02
 Coeff:      0.615D-02 0.206D-01 0.172D-01-0.983D-01-0.242D+00 0.119D+00
 Coeff:      0.118D+01
 Gap=     0.106 Goal=   None    Shift=    0.000
 Gap=     0.113 Goal=   None    Shift=    0.000
 RMSDP=7.95D-07 MaxDP=4.33D-05 DE=-1.33D-08 OVMax= 9.21D-05

 Cycle  20  Pass 1  IDiag  1:
 RMSU=  3.30D-07    CP:  6.91D-01  4.25D-01  7.61D-01  1.88D-01  6.04D-01
                    CP:  8.53D-01  1.52D+00  1.97D+00  1.56D+00  1.39D+00
                    CP:  1.08D+00  1.05D+00  9.67D-01  9.78D-01  1.16D+00
                    CP:  1.29D+00  2.22D+00  1.88D+00  1.34D+00
 E= -435.395555885810     Delta-E=       -0.000000002632 Rises=F Damp=F
 DIIS: error= 6.76D-07 at cycle  20 NSaved=  20.
 NSaved=20 IEnMin=20 EnMin= -435.395555885810     IErMin=20 ErrMin= 6.76D-07
 ErrMax= 6.76D-07  0.00D+00 EMaxC= 1.00D-01 BMatC= 4.99D-10 BMatP= 1.13D-09
 IDIUse=1 WtCom= 1.00D+00 WtEn= 0.00D+00
 Coeff-Com: -0.108D-05-0.354D-06-0.579D-06-0.470D-06-0.145D-05-0.102D-03
 Coeff-Com: -0.141D-03 0.220D-03 0.368D-03 0.186D-03-0.114D-02-0.235D-02
 Coeff-Com:  0.747D-03 0.132D-01 0.340D-01 0.216D-01-0.161D+00-0.209D+00
 Coeff-Com:  0.656D+00 0.648D+00
 Coeff:     -0.108D-05-0.354D-06-0.579D-06-0.470D-06-0.145D-05-0.102D-03
 Coeff:     -0.141D-03 0.220D-03 0.368D-03 0.186D-03-0.114D-02-0.235D-02
 Coeff:      0.747D-03 0.132D-01 0.340D-01 0.216D-01-0.161D+00-0.209D+00
 Coeff:      0.656D+00 0.648D+00
 Gap=     0.106 Goal=   None    Shift=    0.000
 Gap=     0.113 Goal=   None    Shift=    0.000
 RMSDP=2.50D-07 MaxDP=1.23D-05 DE=-2.63D-09 OVMax= 2.80D-05

 Cycle  21  Pass 1  IDiag  1:
 Restarting incremental Fock formation.
 E= -435.395555886206     Delta-E=       -0.000000000397 Rises=F Damp=F
 DIIS: error= 3.12D-07 at cycle  21 NSaved=  20.
 NSaved=20 IEnMin=20 EnMin= -435.395555886206     IErMin=20 ErrMin= 3.12D-07
 ErrMax= 3.12D-07  0.00D+00 EMaxC= 1.00D-01 BMatC= 9.33D-11 BMatP= 4.99D-10
 IDIUse=1 WtCom= 1.00D+00 WtEn= 0.00D+00
 Coeff-Com:  0.120D-05-0.141D-06-0.221D-05-0.946D-06 0.421D-05 0.197D-05
 Coeff-Com: -0.690D-04 0.163D-03 0.145D-03 0.445D-03 0.184D-03-0.153D-02
 Coeff-Com: -0.293D-02 0.872D-03 0.348D-01 0.468D-01-0.837D-01-0.274D+00
 Coeff-Com:  0.105D+00 0.117D+01
 Coeff:      0.120D-05-0.141D-06-0.221D-05-0.946D-06 0.421D-05 0.197D-05
 Coeff:     -0.690D-04 0.163D-03 0.145D-03 0.445D-03 0.184D-03-0.153D-02
 Coeff:     -0.293D-02 0.872D-03 0.348D-01 0.468D-01-0.837D-01-0.274D+00
 Coeff:      0.105D+00 0.117D+01
 Gap=     0.106 Goal=   None    Shift=    0.000
 Gap=     0.113 Goal=   None    Shift=    0.000
 RMSDP=1.59D-07 MaxDP=9.16D-06 DE=-3.97D-10 OVMax= 1.90D-05

 Cycle  22  Pass 1  IDiag  1:
 RMSU=  1.59D-07    CP:  1.00D+00
 E= -435.395555886340     Delta-E=       -0.000000000133 Rises=F Damp=F
 DIIS: error= 1.00D-07 at cycle  22 NSaved=  20.
 NSaved=20 IEnMin=20 EnMin= -435.395555886340     IErMin=20 ErrMin= 1.00D-07
 ErrMax= 1.00D-07  0.00D+00 EMaxC= 1.00D-01 BMatC= 6.96D-12 BMatP= 9.33D-11
 IDIUse=1 WtCom= 1.00D+00 WtEn= 0.00D+00
 Coeff-Com:  0.356D-07-0.336D-06-0.256D-07 0.172D-04 0.180D-04-0.225D-04
 Coeff-Com: -0.602D-04-0.289D-04 0.150D-03 0.351D-03-0.621D-04-0.176D-02
 Coeff-Com: -0.517D-02-0.205D-02 0.231D-01 0.228D-01-0.863D-01-0.882D-01
 Coeff-Com:  0.184D-01 0.112D+01
 Coeff:      0.356D-07-0.336D-06-0.256D-07 0.172D-04 0.180D-04-0.225D-04
 Coeff:     -0.602D-04-0.289D-04 0.150D-03 0.351D-03-0.621D-04-0.176D-02
 Coeff:     -0.517D-02-0.205D-02 0.231D-01 0.228D-01-0.863D-01-0.882D-01
 Coeff:      0.184D-01 0.112D+01
 Gap=     0.106 Goal=   None    Shift=    0.000
 Gap=     0.113 Goal=   None    Shift=    0.000
 RMSDP=6.54D-08 MaxDP=2.73D-06 DE=-1.33D-10 OVMax= 5.04D-06

 Cycle  23  Pass 1  IDiag  1:
 RMSU=  5.40D-08    CP:  1.00D+00  1.23D+00
 E= -435.395555886352     Delta-E=       -0.000000000012 Rises=F Damp=F
 DIIS: error= 6.21D-08 at cycle  23 NSaved=  20.
 NSaved=20 IEnMin=20 EnMin= -435.395555886352     IErMin=20 ErrMin= 6.21D-08
 ErrMax= 6.21D-08  0.00D+00 EMaxC= 1.00D-01 BMatC= 1.65D-12 BMatP= 6.96D-12
 IDIUse=1 WtCom= 1.00D+00 WtEn= 0.00D+00
 Coeff-Com:  0.387D-06-0.120D-06-0.183D-05-0.136D-05 0.518D-05-0.223D-04
 Coeff-Com: -0.162D-04-0.695D-04-0.369D-04 0.194D-03 0.432D-03 0.937D-04
 Coeff-Com: -0.511D-02-0.789D-02 0.122D-01 0.449D-01-0.137D-01-0.170D+00
 Coeff-Com: -0.872D-01 0.123D+01
 Coeff:      0.387D-06-0.120D-06-0.183D-05-0.136D-05 0.518D-05-0.223D-04
 Coeff:     -0.162D-04-0.695D-04-0.369D-04 0.194D-03 0.432D-03 0.937D-04
 Coeff:     -0.511D-02-0.789D-02 0.122D-01 0.449D-01-0.137D-01-0.170D+00
 Coeff:     -0.872D-01 0.123D+01
 Gap=     0.106 Goal=   None    Shift=    0.000
 Gap=     0.113 Goal=   None    Shift=    0.000
 RMSDP=4.34D-08 MaxDP=1.76D-06 DE=-1.23D-11 OVMax= 1.63D-06

 Cycle  24  Pass 1  IDiag  1:
 RMSU=  2.35D-08    CP:  1.00D+00  1.26D+00  1.66D+00
 E= -435.395555886345     Delta-E=        0.000000000007 Rises=F Damp=F
 DIIS: error= 2.82D-08 at cycle  24 NSaved=  20.
 NSaved=20 IEnMin=19 EnMin= -435.395555886352     IErMin=20 ErrMin= 2.82D-08
 ErrMax= 2.82D-08  0.00D+00 EMaxC= 1.00D-01 BMatC= 3.06D-13 BMatP= 1.65D-12
 IDIUse=1 WtCom= 1.00D+00 WtEn= 0.00D+00
 Coeff-Com: -0.394D-07-0.373D-05-0.377D-05 0.594D-05 0.188D-04 0.517D-05
 Coeff-Com: -0.264D-04-0.956D-04-0.160D-04 0.365D-03 0.138D-02 0.141D-02
 Coeff-Com: -0.430D-02-0.733D-02 0.126D-01 0.256D-01 0.219D-01-0.238D+00
 Coeff-Com: -0.260D+00 0.145D+01
 Coeff:     -0.394D-07-0.373D-05-0.377D-05 0.594D-05 0.188D-04 0.517D-05
 Coeff:     -0.264D-04-0.956D-04-0.160D-04 0.365D-03 0.138D-02 0.141D-02
 Coeff:     -0.430D-02-0.733D-02 0.126D-01 0.256D-01 0.219D-01-0.238D+00
 Coeff:     -0.260D+00 0.145D+01
 Gap=     0.106 Goal=   None    Shift=    0.000
 Gap=     0.113 Goal=   None    Shift=    0.000
 RMSDP=2.89D-08 MaxDP=1.04D-06 DE= 6.71D-12 OVMax= 1.09D-06

 Cycle  25  Pass 1  IDiag  1:
 RMSU=  7.44D-09    CP:  1.00D+00  1.26D+00  2.12D+00  1.55D+00
 E= -435.395555886347     Delta-E=       -0.000000000002 Rises=F Damp=F
 DIIS: error= 1.28D-08 at cycle  25 NSaved=  20.
 NSaved=20 IEnMin=18 EnMin= -435.395555886352     IErMin=20 ErrMin= 1.28D-08
 ErrMax= 1.28D-08  0.00D+00 EMaxC= 1.00D-01 BMatC= 6.45D-14 BMatP= 3.06D-13
 IDIUse=1 WtCom= 1.00D+00 WtEn= 0.00D+00
 Coeff-Com:  0.269D-06 0.418D-06-0.212D-06 0.292D-05 0.353D-05 0.105D-04
 Coeff-Com:  0.107D-04-0.166D-04-0.330D-04-0.288D-04 0.632D-03 0.108D-02
 Coeff-Com: -0.176D-02-0.612D-02 0.148D-02 0.216D-01 0.231D-01-0.168D+00
 Coeff-Com: -0.513D-01 0.118D+01
 Coeff:      0.269D-06 0.418D-06-0.212D-06 0.292D-05 0.353D-05 0.105D-04
 Coeff:      0.107D-04-0.166D-04-0.330D-04-0.288D-04 0.632D-03 0.108D-02
 Coeff:     -0.176D-02-0.612D-02 0.148D-02 0.216D-01 0.231D-01-0.168D+00
 Coeff:     -0.513D-01 0.118D+01
 Gap=     0.106 Goal=   None    Shift=    0.000
 Gap=     0.113 Goal=   None    Shift=    0.000
 RMSDP=7.70D-09 MaxDP=2.27D-07 DE=-1.82D-12 OVMax= 3.18D-07

 SCF Done:  E(UB3LYP) =  -435.395555886     A.U. after   25 cycles
            NFock= 25  Conv=0.77D-08     -V/T= 2.0050
 <Sx>= 0.0000 <Sy>= 0.0000 <Sz>= 1.0000 <S**2>= 2.0060 S= 1.0020
 <L.S>= 0.000000000000E+00
 KE= 4.332385810906D+02 PE=-1.799490833645D+03 EE= 5.391196046204D+02
 Annihilation of the first spin contaminant:
 S**2 before annihilation     2.0060,   after     2.0000
 Leave Link  502 at Sat Jun 27 01:51:06 2020, MaxMem=   524288000 cpu:            1280.3 elap:             182.9
 (Enter /home/ubuntu/g16/l601.exe)
 Copying SCF densities to generalized density rwf, IOpCl= 1 IROHF=0.

 **********************************************************************

            Population analysis using the SCF density.

 **********************************************************************

 Orbital symmetries:
 Alpha Orbitals:
       Occupied  (A) (A) (A) (A) (A) (A) (A) (A) (A) (A) (A) (A)
                 (A) (A) (A) (A) (A) (A) (A) (A) (A) (A) (A) (A)
                 (A) (A) (A) (A) (A) (A) (A) (A)
       Virtual   (A) (A) (A) (A) (A) (A) (A) (A) (A) (A) (A) (A)
                 (A) (A) (A) (A) (A) (A) (A) (A) (A) (A) (A) (A)
                 (A) (A) (A) (A) (A) (A) (A) (A) (A) (A) (A) (A)
                 (A) (A) (A) (A) (A) (A) (A) (A) (A) (A) (A) (A)
                 (A) (A) (A) (A) (A) (A) (A) (A) (A) (A) (A) (A)
                 (A) (A) (A) (A) (A) (A) (A) (A) (A) (A) (A) (A)
                 (A) (A) (A) (A) (A) (A) (A) (A) (A) (A) (A) (A)
                 (A) (A) (A) (A) (A) (A) (A) (A) (A) (A) (A) (A)
                 (A) (A) (A) (A) (A) (A) (A) (A) (A) (A) (A) (A)
                 (A) (A) (A) (A) (A) (A) (A) (A) (A) (A) (A) (A)
                 (A) (A) (A) (A) (A) (A) (A) (A) (A) (A) (A) (A)
                 (A) (A) (A) (A) (A) (A) (A) (A) (A) (A) (A) (A)
                 (A) (A) (A) (A) (A) (A) (A) (A) (A) (A) (A) (A)
                 (A) (A) (A) (A) (A) (A) (A) (A) (A) (A) (A) (A)
                 (A) (A) (A) (A) (A) (A) (A) (A) (A) (A) (A) (A)
                 (A) (A) (A) (A) (A) (A) (A) (A) (A) (A) (A) (A)
                 (A) (A) (A) (A) (A) (A) (A) (A) (A) (A)
 Beta  Orbitals:
       Occupied  (A) (A) (A) (A) (A) (A) (A) (A) (A) (A) (A) (A)
                 (A) (A) (A) (A) (A) (A) (A) (A) (A) (A) (A) (A)
                 (A) (A) (A) (A) (A) (A)
       Virtual   (A) (A) (A) (A) (A) (A) (A) (A) (A) (A) (A) (A)
                 (A) (A) (A) (A) (A) (A) (A) (A) (A) (A) (A) (A)
                 (A) (A) (A) (A) (A) (A) (A) (A) (A) (A) (A) (A)
                 (A) (A) (A) (A) (A) (A) (A) (A) (A) (A) (A) (A)
                 (A) (A) (A) (A) (A) (A) (A) (A) (A) (A) (A) (A)
                 (A) (A) (A) (A) (A) (A) (A) (A) (A) (A) (A) (A)
                 (A) (A) (A) (A) (A) (A) (A) (A) (A) (A) (A) (A)
                 (A) (A) (A) (A) (A) (A) (A) (A) (A) (A) (A) (A)
                 (A) (A) (A) (A) (A) (A) (A) (A) (A) (A) (A) (A)
                 (A) (A) (A) (A) (A) (A) (A) (A) (A) (A) (A) (A)
                 (A) (A) (A) (A) (A) (A) (A) (A) (A) (A) (A) (A)
                 (A) (A) (A) (A) (A) (A) (A) (A) (A) (A) (A) (A)
                 (A) (A) (A) (A) (A) (A) (A) (A) (A) (A) (A) (A)
                 (A) (A) (A) (A) (A) (A) (A) (A) (A) (A) (A) (A)
                 (A) (A) (A) (A) (A) (A) (A) (A) (A) (A) (A) (A)
                 (A) (A) (A) (A) (A) (A) (A) (A) (A) (A) (A) (A)
                 (A) (A) (A) (A) (A) (A) (A) (A) (A) (A) (A) (A)
 The electronic state is 3-A.
     Natural Orbital Coefficients:
                           1         2         3         4         5
     Eigenvalues --     2.00000   2.00000   2.00000   2.00000   2.00000
   1 1   C  1S         -0.00026  -0.00044   0.00067  -0.00469  -0.01148
   2        2S          0.00025   0.00007   0.00035  -0.00159  -0.00075
   3        3S         -0.00617   0.00130   0.01287   0.04324   0.00624
   4        4S          0.00108  -0.00680  -0.00761   0.00932  -0.01351
   5        5PX         0.00000  -0.00000  -0.00010   0.00028   0.00021
   6        5PY         0.00000   0.00005   0.00005  -0.00048  -0.00040
   7        5PZ        -0.00000   0.00000   0.00000  -0.00000  -0.00000
   8        6PX         0.00052  -0.00367   0.00097  -0.00805  -0.00079
   9        6PY        -0.00527  -0.00627   0.00444   0.02107   0.02807
  10        6PZ        -0.00000  -0.00000  -0.00001   0.00004   0.00006
  11        7PX         0.00071   0.00226  -0.00003   0.00374   0.00130
  12        7PY         0.01277   0.01084  -0.01157  -0.00699  -0.02180
  13        7PZ         0.00003   0.00002  -0.00002  -0.00001  -0.00004
  14        8D 0        0.00011   0.00011   0.00015  -0.00019  -0.00011
  15        8D+1        0.00000  -0.00000  -0.00000  -0.00000   0.00000
  16        8D-1       -0.00000  -0.00000  -0.00000   0.00000   0.00000
  17        8D+2        0.00012   0.00014   0.00002  -0.00010   0.00016
  18        8D-2        0.00001   0.00004  -0.00004   0.00003   0.00013
  19        9D 0        0.00016   0.00039   0.00094  -0.00002   0.00032
  20        9D+1        0.00000  -0.00000   0.00001  -0.00001  -0.00002
  21        9D-1       -0.00001  -0.00001   0.00002  -0.00001  -0.00000
  22        9D+2       -0.00002   0.00143  -0.00103  -0.00110  -0.00082
  23        9D-2        0.00122   0.00126  -0.00092  -0.00654  -0.00876
  24 2   C  1S         -0.00020   0.00058   0.00086  -0.00772  -0.00314
  25        2S          0.00016   0.00019   0.00012  -0.00154  -0.00040
  26        3S         -0.00670   0.01578   0.01744   0.04712   0.03763
  27        4S         -0.00208   0.01830   0.00834   0.00246   0.01244
  28        5PX        -0.00004  -0.00005  -0.00000   0.00057   0.00002
  29        5PY         0.00002   0.00006   0.00011  -0.00006   0.00002
  30        5PZ         0.00000   0.00000   0.00000   0.00000  -0.00000
  31        6PX         0.00081  -0.01085  -0.01101  -0.02399   0.00366
  32        6PY        -0.00021  -0.01475  -0.00012   0.00456   0.01059
  33        6PZ         0.00001  -0.00004   0.00004   0.00004   0.00003
  34        7PX         0.01159   0.00666  -0.01068  -0.01451  -0.02174
  35        7PY         0.00411   0.00275  -0.00179  -0.01011  -0.01082
  36        7PZ        -0.00002  -0.00000   0.00001  -0.00001  -0.00001
  37        8D 0        0.00001   0.00007   0.00001  -0.00005   0.00004
  38        8D+1        0.00000   0.00000  -0.00000   0.00000   0.00000
  39        8D-1       -0.00000  -0.00000  -0.00000   0.00000  -0.00000
  40        8D+2        0.00005   0.00003   0.00015  -0.00024   0.00024
  41        8D-2        0.00003   0.00034   0.00025   0.00006   0.00019
  42        9D 0       -0.00041  -0.00045  -0.00017   0.00047   0.00002
  43        9D+1       -0.00002   0.00001   0.00001  -0.00003  -0.00001
  44        9D-1       -0.00001  -0.00002   0.00002  -0.00001  -0.00000
  45        9D+2       -0.00017   0.00334   0.00245   0.00526  -0.00144
  46        9D-2        0.00030   0.00385  -0.00204  -0.00571   0.00115
  47 3   C  1S          0.00010  -0.00421  -0.00054   0.15728  -0.02850
  48        2S          0.00038   0.00012  -0.00023   0.00315  -0.00089
  49        3S         -0.01675   0.03831  -0.00403   0.01465   0.03351
  50        4S          0.00817  -0.01837  -0.03226   0.01549  -0.00559
  51        5PX         0.00000  -0.00008   0.00042   0.00131  -0.00088
  52        5PY        -0.00001   0.00003  -0.00034  -0.00193   0.00007
  53        5PZ        -0.00000  -0.00000  -0.00000   0.00000  -0.00001
  54        6PX        -0.00071  -0.01794  -0.02516  -0.05422  -0.01732
  55        6PY        -0.01281   0.03245   0.00061   0.01729   0.01690
  56        6PZ         0.00002   0.00012  -0.00007   0.00008   0.00001
  57        7PX         0.00794  -0.00100  -0.00482  -0.00985  -0.02380
  58        7PY        -0.00367  -0.00602  -0.00441   0.01588   0.01054
  59        7PZ         0.00001  -0.00002  -0.00001   0.00004   0.00004
  60        8D 0        0.00009   0.00004   0.00010   0.00025  -0.00025
  61        8D+1        0.00000  -0.00000   0.00000   0.00000   0.00000
  62        8D-1        0.00000   0.00000  -0.00000   0.00000  -0.00000
  63        8D+2       -0.00000  -0.00018  -0.00001   0.00107  -0.00006
  64        8D-2       -0.00000   0.00011   0.00021   0.00097  -0.00078
  65        9D 0        0.00029   0.00228   0.00126  -0.00047   0.00091
  66        9D+1       -0.00005   0.00003   0.00002  -0.00003  -0.00001
  67        9D-1        0.00000   0.00004  -0.00004   0.00004   0.00001
  68        9D+2        0.00502  -0.01674  -0.00083  -0.00578  -0.00533
  69        9D-2        0.00066   0.00280  -0.00793  -0.01970  -0.00655
  70 4   C  1S         -0.00081   0.00096   0.04720   0.88520  -0.43549
  71        2S          0.00089   0.00066  -0.00007   0.02933  -0.01784
  72        3S          0.00693  -0.01101  -0.03818  -0.12394   0.06474
  73        4S         -0.02294   0.02962   0.09774  -0.03586   0.09668
  74        5PX        -0.00011   0.00015   0.00107  -0.00087  -0.00371
  75        5PY         0.00003   0.00020   0.00027  -0.00085  -0.00384
  76        5PZ         0.00000   0.00000   0.00000   0.00004  -0.00002
  77        6PX        -0.02954  -0.04055  -0.03434  -0.02501   0.01892
  78        6PY        -0.01485   0.02462  -0.01272   0.00750   0.06839
  79        6PZ        -0.00001   0.00003  -0.00005   0.00001   0.00007
  80        7PX         0.00647   0.00728  -0.00709  -0.00008   0.02010
  81        7PY        -0.01360  -0.01122   0.01448   0.01775   0.05067
  82        7PZ        -0.00007   0.00001   0.00001   0.00001   0.00007
  83        8D 0        0.00037   0.00032  -0.00027   0.00020   0.00089
  84        8D+1       -0.00000  -0.00000  -0.00000  -0.00001   0.00000
  85        8D-1        0.00000   0.00000  -0.00000   0.00000  -0.00000
  86        8D+2       -0.00013  -0.00043  -0.00060   0.00030   0.00066
  87        8D-2       -0.00028   0.00039  -0.00002  -0.00037  -0.00132
  88        9D 0       -0.00090  -0.00316  -0.00475   0.00915  -0.00667
  89        9D+1        0.00002   0.00000  -0.00002  -0.00001   0.00001
  90        9D-1        0.00009   0.00003  -0.00016  -0.00003  -0.00001
  91        9D+2        0.00121   0.02570   0.02318   0.03367   0.00555
  92        9D-2       -0.02301   0.01812  -0.01529  -0.01260   0.01263
  93 5   N  1S          0.01515   0.38966   0.92228  -0.04031   0.01903
  94        2S         -0.00230   0.00052   0.01949   0.00325  -0.00518
  95        3S          0.02958  -0.00062  -0.07070  -0.00247  -0.00347
  96        4S          0.02999   0.00141  -0.06960  -0.01194  -0.00044
  97        5PX         0.00098   0.00414   0.00175  -0.00478   0.00616
  98        5PY         0.00143  -0.00235   0.00256  -0.00235  -0.00593
  99        5PZ         0.00000   0.00005  -0.00000   0.00015   0.00002
 100        6PX        -0.03023  -0.03271  -0.01141  -0.01159  -0.00323
 101        6PY        -0.03511   0.03766  -0.01237  -0.00373  -0.00296
 102        6PZ         0.00016  -0.00016   0.00006   0.00007  -0.00001
 103        7PX        -0.00504  -0.00991  -0.01104  -0.00920  -0.00591
 104        7PY        -0.00878   0.01058  -0.00274  -0.00526  -0.00820
 105        7PZ         0.00005  -0.00004   0.00001   0.00000  -0.00002
 106        8D 0        0.00007   0.00022  -0.00021   0.00031   0.00021
 107        8D+1        0.00000  -0.00000   0.00000  -0.00000  -0.00000
 108        8D-1        0.00000   0.00000  -0.00001   0.00001   0.00000
 109        8D+2        0.00022   0.00043  -0.00060  -0.00126   0.00075
 110        8D-2       -0.00046   0.00062  -0.00012  -0.00021   0.00042
 111        9D 0       -0.00728  -0.00693   0.00406  -0.00439  -0.00109
 112        9D+1       -0.00005   0.00004  -0.00001   0.00001   0.00001
 113        9D-1       -0.00011  -0.00009   0.00015  -0.00003   0.00001
 114        9D+2       -0.00982  -0.01022   0.00740  -0.00854  -0.00128
 115        9D-2        0.00918  -0.00515   0.00224   0.00043  -0.00333
 116 6   O  1S          1.00068   0.01087  -0.01996   0.00090  -0.00031
 117        2S          0.02103   0.00181  -0.00057   0.00046  -0.00563
 118        3S         -0.06897  -0.00211   0.00382  -0.01182  -0.00835
 119        4S         -0.02983   0.00302   0.01103  -0.00389  -0.00956
 120        5PX         0.00113  -0.00406  -0.00427   0.01027  -0.00278
 121        5PY         0.00211  -0.00378  -0.00551   0.00020   0.00345
 122        5PZ        -0.00001   0.00002   0.00002  -0.00006   0.00002
 123        6PX        -0.01658  -0.00370   0.00184   0.00225  -0.00419
 124        6PY        -0.02435  -0.00401  -0.00376  -0.00303   0.00174
 125        6PZ         0.00014   0.00003   0.00004  -0.00000   0.00003
 126        7PX        -0.00174   0.00128   0.00278   0.00372  -0.00160
 127        7PY        -0.00446  -0.00024   0.00143  -0.00048   0.00007
 128        7PZ         0.00003  -0.00000  -0.00002  -0.00000   0.00002
 129        8D 0       -0.00005   0.00038   0.00057  -0.00014   0.00005
 130        8D+1       -0.00000   0.00000   0.00000  -0.00000  -0.00000
 131        8D-1       -0.00000   0.00001   0.00001  -0.00000   0.00000
 132        8D+2       -0.00009   0.00043   0.00023  -0.00007   0.00014
 133        8D-2        0.00015  -0.00053  -0.00090   0.00032  -0.00010
 134        9D 0        0.00288   0.00133   0.00004  -0.00017   0.00045
 135        9D+1        0.00003   0.00000   0.00001   0.00001   0.00001
 136        9D-1        0.00004   0.00002   0.00002   0.00001   0.00001
 137        9D+2        0.00210   0.00082   0.00183  -0.00017  -0.00040
 138        9D-2       -0.00527  -0.00037   0.00007  -0.00041  -0.00030
 139 7   O  1S         -0.01797   0.92513  -0.38606   0.01504  -0.00675
 140        2S          0.00054   0.01481  -0.00787   0.00311  -0.00373
 141        3S         -0.00250  -0.06876   0.02788  -0.00684  -0.00575
 142        4S         -0.00186  -0.02475   0.02051   0.00429   0.00290
 143        5PX         0.00001   0.00061  -0.00110  -0.00137   0.00029
 144        5PY         0.00036   0.00301   0.00506  -0.00373   0.00994
 145        5PZ         0.00001   0.00002  -0.00000   0.00022  -0.00010
 146        6PX        -0.00237  -0.01048   0.00729  -0.00371   0.00182
 147        6PY         0.00160   0.02825  -0.00674  -0.00014   0.00710
 148        6PZ         0.00000  -0.00017   0.00003   0.00011  -0.00008
 149        7PX         0.00001   0.00031   0.00353   0.00273   0.00205
 150        7PY         0.00035   0.00364  -0.00252  -0.00100   0.00182
 151        7PZ        -0.00001  -0.00002   0.00004   0.00003   0.00001
 152        8D 0        0.00005   0.00027   0.00053   0.00001   0.00031
 153        8D+1        0.00000  -0.00000  -0.00000   0.00000  -0.00000
 154        8D-1        0.00000   0.00000   0.00001  -0.00001   0.00001
 155        8D+2        0.00026   0.00034   0.00059  -0.00036   0.00038
 156        8D-2       -0.00003   0.00027   0.00066   0.00000   0.00016
 157        9D 0        0.00105   0.00302  -0.00062  -0.00027   0.00012
 158        9D+1       -0.00000  -0.00003   0.00001   0.00000   0.00001
 159        9D-1        0.00001   0.00007   0.00000  -0.00000   0.00002
 160        9D+2       -0.00006   0.00424   0.00042  -0.00038   0.00101
 161        9D-2        0.00025   0.00391  -0.00209   0.00055  -0.00000
 162 8   C  1S          0.00252   0.00146   0.00204   0.43012   0.89523
 163        2S          0.00063   0.00057   0.00014   0.01219   0.02893
 164        3S          0.03623  -0.00765   0.01653  -0.01416  -0.13465
 165        4S          0.00598  -0.01942  -0.03221  -0.03948  -0.13562
 166        5PX        -0.00010  -0.00002   0.00021   0.00089   0.00075
 167        5PY        -0.00007  -0.00001   0.00010   0.00144  -0.00043
 168        5PZ         0.00000  -0.00000  -0.00000   0.00002  -0.00002
 169        6PX        -0.00402  -0.01098  -0.04358  -0.06443   0.01013
 170        6PY        -0.02246   0.00972  -0.02034  -0.02580   0.04494
 171        6PZ        -0.00013  -0.00001   0.00006  -0.00008   0.00012
 172        7PX        -0.01987  -0.01117   0.01790  -0.00678   0.01724
 173        7PY        -0.00579   0.00076   0.01365   0.00287   0.03574
 174        7PZ         0.00001  -0.00000   0.00005   0.00003   0.00011
 175        8D 0        0.00006   0.00011   0.00010   0.00015  -0.00075
 176        8D+1        0.00000  -0.00000   0.00000  -0.00000   0.00000
 177        8D-1        0.00000   0.00000  -0.00000   0.00000   0.00001
 178        8D+2       -0.00008   0.00004  -0.00010   0.00037  -0.00026
 179        8D-2        0.00008  -0.00004  -0.00013  -0.00127   0.00014
 180        9D 0        0.00223   0.00139   0.00226   0.00254   0.00989
 181        9D+1       -0.00001   0.00003  -0.00004   0.00004  -0.00004
 182        9D-1        0.00008  -0.00001  -0.00002   0.00003  -0.00006
 183        9D+2       -0.01553   0.00473  -0.01139  -0.01061   0.00373
 184        9D-2       -0.00397   0.00113   0.00846   0.00870  -0.01332
 185 9   C  1S         -0.00024  -0.00166  -0.00336   0.08794   0.08859
 186        2S          0.00018  -0.00011  -0.00038   0.00096   0.00121
 187        3S          0.01836   0.00705   0.02985   0.02303  -0.01435
 188        4S          0.00448   0.00865   0.00329   0.03591   0.04889
 189        5PX        -0.00016  -0.00010  -0.00005   0.00168   0.00199
 190        5PY        -0.00003  -0.00005  -0.00012  -0.00000  -0.00095
 191        5PZ        -0.00000  -0.00000   0.00000   0.00000  -0.00001
 192        6PX        -0.00222  -0.00013  -0.02522  -0.04063  -0.01940
 193        6PY         0.00238  -0.00460   0.00419   0.02409   0.01790
 194        6PZ         0.00004  -0.00003   0.00003   0.00009   0.00005
 195        7PX        -0.01001  -0.00967   0.00803  -0.00877   0.00502
 196        7PY         0.00712   0.00285  -0.00979  -0.00705  -0.02223
 197        7PZ         0.00002   0.00001  -0.00004  -0.00003  -0.00008
 198        8D 0        0.00004  -0.00004  -0.00010   0.00015   0.00065
 199        8D+1       -0.00000  -0.00000  -0.00000  -0.00000   0.00000
 200        8D-1       -0.00000   0.00000   0.00000   0.00000   0.00000
 201        8D+2       -0.00012  -0.00001   0.00004  -0.00071  -0.00126
 202        8D-2       -0.00017  -0.00008  -0.00014   0.00005   0.00029
 203        9D 0       -0.00018  -0.00070  -0.00039  -0.00016  -0.00177
 204        9D+1       -0.00002   0.00000  -0.00002  -0.00000  -0.00000
 205        9D-1       -0.00000   0.00000   0.00000  -0.00005  -0.00002
 206        9D+2       -0.00174  -0.00051   0.00730   0.01653   0.00986
 207        9D-2       -0.00411  -0.00147   0.00078  -0.00053  -0.00147
 208 10  H  1S         -0.00005   0.00008   0.00005  -0.00103   0.00071
 209        2S         -0.00357  -0.00235   0.00052   0.00859   0.00048
 210        3S         -0.00065  -0.00181  -0.00231   0.00392   0.00281
 211        4PX         0.00012  -0.00027  -0.00000  -0.00024   0.00007
 212        4PY        -0.00004   0.00021  -0.00017  -0.00085   0.00004
 213        4PZ        -0.00000   0.00000   0.00000  -0.00000   0.00000
 214        5PX         0.00022  -0.00291  -0.00010  -0.00111  -0.00112
 215        5PY        -0.00125   0.00113  -0.00096   0.00170  -0.00068
 216        5PZ        -0.00002   0.00001  -0.00001   0.00001   0.00001
 217 11  H  1S          0.00009   0.00008   0.00017  -0.00235  -0.00405
 218        2S         -0.00871  -0.00181  -0.00257   0.01062   0.00025
 219        3S         -0.00160  -0.00325  -0.00124  -0.00369  -0.00909
 220        4PX        -0.00023   0.00011  -0.00010  -0.00032  -0.00090
 221        4PY        -0.00023   0.00007   0.00000   0.00102   0.00125
 222        4PZ        -0.00000   0.00000  -0.00000   0.00001   0.00001
 223        5PX        -0.00358   0.00046  -0.00191   0.00110   0.00274
 224        5PY         0.00074   0.00138   0.00081  -0.00343   0.00026
 225        5PZ        -0.00001   0.00002  -0.00000  -0.00002  -0.00000
 226 12  H  1S         -0.00005   0.00000   0.00005  -0.00033  -0.00132
 227        2S          0.00145   0.00329   0.00681   0.00543   0.00791
 228        3S          0.00117   0.00185  -0.00015   0.00671   0.00484
 229        4PX         0.00008   0.00005   0.00008   0.00049   0.00049
 230        4PY        -0.00004   0.00001   0.00009   0.00027   0.00014
 231        4PZ         0.00000   0.00000  -0.00000   0.00000   0.00000
 232        5PX         0.00083  -0.00031  -0.00181  -0.00216  -0.00378
 233        5PY        -0.00066  -0.00081  -0.00067   0.00084  -0.00064
 234        5PZ        -0.00000  -0.00000  -0.00001  -0.00001  -0.00001
                           6         7         8         9        10
     Eigenvalues --     2.00000   2.00000   2.00000   2.00000   2.00000
   1 1   C  1S          0.00583   0.01576   0.01232  -0.01535   0.12568
   2        2S         -0.00040   0.00009  -0.00064   0.00116   0.00310
   3        3S          0.01453  -0.00493   0.02131   0.01765  -0.04065
   4        4S          0.00456   0.01433  -0.02586  -0.01924   0.05280
   5        5PX         0.00022   0.00031   0.00008  -0.00030  -0.00013
   6        5PY         0.00040  -0.00016  -0.00051   0.00043   0.00228
   7        5PZ         0.00000   0.00000  -0.00000   0.00001   0.00004
   8        6PX         0.00554  -0.02131  -0.01477   0.00692   0.04766
   9        6PY        -0.01674   0.05186  -0.03883   0.01222   0.13714
  10        6PZ        -0.00004   0.00014  -0.00009  -0.00000   0.00013
  11        7PX         0.00191  -0.00596  -0.00088   0.01207  -0.01611
  12        7PY        -0.00967   0.05556  -0.02814   0.04931  -0.11112
  13        7PZ        -0.00003   0.00013  -0.00013   0.00010  -0.00014
  14        8D 0       -0.00001   0.00054  -0.00043   0.00052  -0.00020
  15        8D+1       -0.00000   0.00000   0.00000  -0.00000  -0.00001
  16        8D-1        0.00000  -0.00000   0.00000  -0.00000   0.00001
  17        8D+2       -0.00014   0.00103  -0.00037   0.00021  -0.00019
  18        8D-2        0.00004   0.00059   0.00020   0.00004  -0.00085
  19        9D 0       -0.00021  -0.00058  -0.00096   0.00302   0.00006
  20        9D+1        0.00001  -0.00004   0.00001   0.00002  -0.00003
  21        9D-1        0.00001  -0.00001   0.00001   0.00002   0.00016
  22        9D+2       -0.00424   0.00983   0.00598  -0.00424  -0.01718
  23        9D-2        0.00352  -0.01491   0.00606  -0.00008  -0.02633
  24 2   C  1S          0.01444  -0.00274   0.01108   0.00360   0.12321
  25        2S         -0.00025  -0.00057  -0.00100   0.00033   0.00195
  26        3S          0.01209   0.01939  -0.00839   0.07622  -0.05828
  27        4S          0.02188   0.00018  -0.01036   0.08437  -0.06262
  28        5PX         0.00023  -0.00057   0.00117   0.00116  -0.00083
  29        5PY        -0.00026  -0.00028   0.00029   0.00058   0.00007
  30        5PZ        -0.00000   0.00000   0.00000   0.00000  -0.00002
  31        6PX        -0.03246   0.04706  -0.03664  -0.03413   0.15160
  32        6PY         0.00850   0.00697  -0.02166  -0.02022   0.10715
  33        6PZ         0.00003  -0.00004  -0.00001  -0.00000  -0.00010
  34        7PX        -0.01584   0.05042  -0.01828   0.02481  -0.09554
  35        7PY        -0.00025   0.01835   0.00493   0.01065  -0.05000
  36        7PZ         0.00002  -0.00002   0.00013   0.00002  -0.00014
  37        8D 0        0.00056  -0.00032  -0.00002   0.00032  -0.00004
  38        8D+1        0.00000  -0.00000  -0.00000   0.00000   0.00001
  39        8D-1        0.00000  -0.00000   0.00000  -0.00000   0.00001
  40        8D+2       -0.00104   0.00066  -0.00013   0.00011  -0.00049
  41        8D-2       -0.00012   0.00028  -0.00054   0.00129  -0.00181
  42        9D 0       -0.00089  -0.00006   0.00160  -0.00200   0.00299
  43        9D+1       -0.00002   0.00004   0.00000   0.00005   0.00027
  44        9D-1        0.00001  -0.00001   0.00002  -0.00001   0.00016
  45        9D+2        0.00166  -0.00258   0.00925   0.00864  -0.03994
  46        9D-2       -0.01135   0.01320  -0.00841   0.00731   0.00344
  47 3   C  1S          0.95364  -0.24701  -0.01733   0.01155   0.00133
  48        2S          0.03644  -0.01102  -0.00391  -0.00021  -0.00263
  49        3S         -0.12521   0.05655   0.00178   0.09334  -0.02777
  50        4S         -0.09863   0.06097  -0.02255  -0.07552   0.01152
  51        5PX         0.00074   0.00017  -0.00196  -0.00087   0.00170
  52        5PY        -0.00010   0.00003   0.00013   0.00062   0.01058
  53        5PZ         0.00000   0.00000   0.00003   0.00001  -0.00007
  54        6PX        -0.02008   0.02378  -0.01486  -0.09358   0.17199
  55        6PY        -0.05615   0.02473   0.03546   0.06165  -0.12058
  56        6PZ        -0.00005   0.00001  -0.00001   0.00007  -0.00012
  57        7PX        -0.00204   0.03173   0.01349   0.00147  -0.06528
  58        7PY        -0.01352  -0.00826  -0.00688  -0.01645   0.05088
  59        7PZ        -0.00003  -0.00005  -0.00019  -0.00008   0.00033
  60        8D 0       -0.00090   0.00016  -0.00069   0.00016   0.00006
  61        8D+1       -0.00000  -0.00000  -0.00001  -0.00001   0.00000
  62        8D-1        0.00000   0.00000  -0.00001   0.00000   0.00002
  63        8D+2       -0.00001  -0.00002   0.00049  -0.00060   0.00007
  64        8D-2        0.00079  -0.00006  -0.00017   0.00067   0.00008
  65        9D 0        0.00857  -0.00311  -0.00408   0.00932  -0.00609
  66        9D+1        0.00000   0.00002   0.00010   0.00009   0.00020
  67        9D-1       -0.00002  -0.00001   0.00002  -0.00002  -0.00005
  68        9D+2        0.01174  -0.00131  -0.01662  -0.03060   0.07533
  69        9D-2       -0.01270   0.00846  -0.00646  -0.01191   0.01400
  70 4   C  1S         -0.15804  -0.00232  -0.00896   0.00907  -0.01732
  71        2S         -0.00625   0.00038  -0.00174   0.01669   0.03026
  72        3S          0.01729   0.02576   0.01443  -0.09689   0.02011
  73        4S          0.04285  -0.00932   0.12920   0.11424   0.06642
  74        5PX        -0.00134   0.00051   0.00051   0.00707   0.03030
  75        5PY         0.00132   0.00098   0.00130   0.02210   0.04283
  76        5PZ         0.00004   0.00002  -0.00013   0.00022   0.00043
  77        6PX         0.02000  -0.01341   0.12471  -0.13690   0.01288
  78        6PY        -0.06317   0.03291   0.09289   0.00371  -0.26983
  79        6PZ        -0.00009   0.00006   0.00008  -0.00009  -0.00019
  80        7PX         0.00203  -0.00650  -0.04760   0.00646  -0.03656
  81        7PY        -0.01923  -0.02127   0.02265  -0.04107   0.11527
  82        7PZ        -0.00000  -0.00002   0.00031   0.00000   0.00006
  83        8D 0        0.00052  -0.00048  -0.00165   0.00080  -0.00020
  84        8D+1       -0.00000  -0.00000   0.00003  -0.00006   0.00001
  85        8D-1        0.00000   0.00000  -0.00002   0.00001   0.00008
  86        8D+2        0.00077  -0.00051   0.00282  -0.00669  -0.00388
  87        8D-2        0.00121  -0.00019   0.00180   0.00104  -0.00760
  88        9D 0       -0.00264   0.00001   0.00802  -0.01852  -0.00067
  89        9D+1       -0.00003   0.00001  -0.00007   0.00009  -0.00016
  90        9D-1       -0.00000  -0.00001  -0.00020  -0.00031   0.00016
  91        9D+2        0.01224  -0.00959  -0.04503   0.13904   0.01039
  92        9D-2       -0.02484   0.00661   0.05628   0.01269  -0.02235
  93 5   N  1S          0.00807   0.00490  -0.05920   0.12623   0.00482
  94        2S          0.00453  -0.00390   0.13983  -0.34542  -0.02642
  95        3S         -0.00099  -0.00845   0.02657  -0.38093  -0.09957
  96        4S         -0.00344  -0.00941  -0.14829  -0.17122  -0.11935
  97        5PX         0.00140   0.00276  -0.08285   0.18786   0.01487
  98        5PY        -0.00505  -0.00304  -0.09858  -0.01040   0.45925
  99        5PZ         0.00004   0.00007  -0.00054   0.00183  -0.00118
 100        6PX         0.00059  -0.00052   0.09101  -0.02690   0.03482
 101        6PY        -0.00477  -0.00192   0.06052   0.09003   0.10081
 102        6PZ         0.00002   0.00003  -0.00080   0.00046   0.00020
 103        7PX        -0.00234  -0.00408   0.02360  -0.01521   0.01374
 104        7PY         0.00267  -0.00154   0.03278   0.04383   0.03145
 105        7PZ        -0.00001  -0.00001  -0.00033  -0.00003   0.00002
 106        8D 0       -0.00035   0.00014  -0.01162   0.01284  -0.00224
 107        8D+1        0.00000  -0.00000  -0.00005  -0.00011   0.00022
 108        8D-1        0.00002   0.00002  -0.00022   0.00026   0.00079
 109        8D+2       -0.00080  -0.00004  -0.01013   0.00861  -0.00411
 110        8D-2       -0.00021   0.00026   0.01572   0.01180  -0.03192
 111        9D 0       -0.00104   0.00047   0.02003  -0.01190   0.00786
 112        9D+1       -0.00000   0.00000   0.00009   0.00018  -0.00015
 113        9D-1        0.00001   0.00002   0.00021   0.00009   0.00043
 114        9D+2        0.00048   0.00029   0.02030   0.00078   0.03054
 115        9D-2        0.00212  -0.00093  -0.03118  -0.00607   0.06268
 116 6   O  1S         -0.00315  -0.00165  -0.19844  -0.06276  -0.01725
 117        2S          0.00727   0.00482   0.44935   0.14317   0.03437
 118        3S          0.00390   0.00720   0.58917   0.26093   0.11703
 119        4S          0.00207   0.00267   0.15677   0.15554   0.12767
 120        5PX         0.01304   0.00040   0.03088  -0.15439  -0.19412
 121        5PY        -0.00584  -0.00334  -0.01055  -0.23733  -0.31190
 122        5PZ        -0.00027  -0.00012   0.00005   0.00132  -0.00566
 123        6PX         0.00884   0.00089   0.04251  -0.05480  -0.06444
 124        6PY        -0.00610  -0.00098   0.02734  -0.09125  -0.15445
 125        6PZ        -0.00017  -0.00009  -0.00015   0.00050  -0.00416
 126        7PX         0.00305   0.00159   0.00919   0.00846   0.00548
 127        7PY        -0.00184  -0.00025   0.00624   0.01376   0.00146
 128        7PZ        -0.00004  -0.00002   0.00004  -0.00024  -0.00129
 129        8D 0       -0.00008   0.00007  -0.00315   0.00918   0.00880
 130        8D+1       -0.00001  -0.00000  -0.00006   0.00009  -0.00002
 131        8D-1       -0.00001  -0.00000  -0.00007   0.00017  -0.00004
 132        8D+2        0.00022   0.00015  -0.00316   0.00873   0.00213
 133        8D-2        0.00048  -0.00004   0.00807  -0.01216  -0.01601
 134        9D 0       -0.00019  -0.00004  -0.00523   0.00337  -0.00027
 135        9D+1       -0.00001  -0.00000  -0.00008   0.00001  -0.00021
 136        9D-1        0.00000  -0.00000  -0.00011   0.00014  -0.00014
 137        9D+2        0.00125   0.00015  -0.00469   0.00586   0.00290
 138        9D-2        0.00011   0.00014   0.00889   0.00127   0.00005
 139 7   O  1S         -0.00066  -0.00082  -0.00424   0.08064  -0.06682
 140        2S          0.00398  -0.00018   0.01130  -0.21244   0.16377
 141        3S          0.00604   0.00270   0.01872  -0.22371   0.18654
 142        4S         -0.00164   0.00483   0.01174   0.00120  -0.00120
 143        5PX        -0.00331  -0.00089  -0.00325   0.02960   0.05386
 144        5PY        -0.00069   0.00499  -0.03558   0.18862  -0.27952
 145        5PZ         0.00031   0.00017  -0.00099   0.00077   0.01032
 146        6PX        -0.00330   0.00047   0.00247   0.02957   0.01062
 147        6PY        -0.00186   0.00118  -0.02501   0.09994  -0.16705
 148        6PZ         0.00021   0.00012  -0.00059   0.00050   0.00679
 149        7PX        -0.00100   0.00146  -0.00508   0.01371  -0.00758
 150        7PY         0.00000   0.00023  -0.00656  -0.00291  -0.01217
 151        7PZ         0.00005   0.00004  -0.00002   0.00017   0.00133
 152        8D 0        0.00005   0.00015  -0.00176   0.00690  -0.00756
 153        8D+1        0.00000   0.00000  -0.00002   0.00000   0.00020
 154        8D-1       -0.00001  -0.00000   0.00001   0.00006  -0.00037
 155        8D+2       -0.00003   0.00024  -0.00392   0.01392  -0.00790
 156        8D-2        0.00010   0.00016  -0.00047   0.00632  -0.01200
 157        9D 0        0.00017  -0.00010  -0.00411   0.00332  -0.00219
 158        9D+1        0.00000   0.00001  -0.00002   0.00003   0.00023
 159        9D-1       -0.00001  -0.00001  -0.00001   0.00005  -0.00038
 160        9D+2       -0.00075   0.00003  -0.00325   0.01221  -0.00620
 161        9D-2       -0.00002  -0.00029  -0.00087   0.00032  -0.00341
 162 8   C  1S         -0.07069  -0.10306   0.01356  -0.01173   0.00849
 163        2S         -0.00272  -0.00370   0.00059   0.01623   0.02123
 164        3S          0.05411   0.02420  -0.09264   0.03195   0.04353
 165        4S          0.02610   0.06079  -0.04680  -0.03685   0.03699
 166        5PX        -0.00119  -0.00231  -0.00138  -0.01594  -0.01276
 167        5PY         0.00051  -0.00077  -0.00189  -0.00772  -0.03958
 168        5PZ         0.00003   0.00001  -0.00003   0.00002   0.00047
 169        6PX        -0.02562   0.06031   0.10914  -0.15404  -0.23025
 170        6PY        -0.01911  -0.01049   0.07140  -0.00270  -0.08389
 171        6PZ        -0.00004  -0.00004   0.00034   0.00011   0.00001
 172        7PX         0.00157  -0.00517   0.04864  -0.02205   0.14454
 173        7PY        -0.00434  -0.01852   0.02107  -0.02397   0.05463
 174        7PZ        -0.00004  -0.00006  -0.00004  -0.00007   0.00011
 175        8D 0        0.00002   0.00057  -0.00025  -0.00039  -0.00111
 176        8D+1       -0.00000   0.00000   0.00000  -0.00000  -0.00001
 177        8D-1       -0.00000  -0.00000   0.00000  -0.00001  -0.00000
 178        8D+2        0.00013  -0.00112   0.00061   0.00017  -0.00281
 179        8D-2        0.00042   0.00020   0.00040   0.00050   0.00299
 180        9D 0       -0.00074  -0.00275  -0.00873   0.00824   0.00441
 181        9D+1        0.00002  -0.00009  -0.00001  -0.00002  -0.00020
 182        9D-1        0.00002  -0.00002  -0.00025  -0.00007   0.00011
 183        9D+2       -0.00126   0.00723   0.05372   0.00849  -0.04621
 184        9D-2        0.01078  -0.02316  -0.01157   0.04399   0.04023
 185 9   C  1S          0.23667   0.96160  -0.00986  -0.01039   0.00362
 186        2S          0.00771   0.03748  -0.00103  -0.00068  -0.00367
 187        3S          0.00305  -0.13939  -0.08143   0.06379   0.07686
 188        4S         -0.00338  -0.12937   0.01860  -0.02273  -0.07464
 189        5PX         0.00024   0.00039   0.00088   0.00205  -0.00382
 190        5PY        -0.00038  -0.00095   0.00039   0.00003  -0.00608
 191        5PZ         0.00001   0.00000   0.00001   0.00001   0.00016
 192        6PX        -0.00414   0.04220   0.07080  -0.06679  -0.15676
[...]
   D13        0.00064  -0.00003   0.00000  -0.00064  -0.00064  -0.00000
   D14        0.00005  -0.00000   0.00000  -0.00005  -0.00005  -0.00000
   D15        3.14159   0.00000   0.00000   0.00000   0.00000   3.14159
   D16       -3.14153  -0.00000   0.00000  -0.00007  -0.00007  -3.14159
   D17        0.00002  -0.00000   0.00000  -0.00002  -0.00002  -0.00000
   D18       -0.00004   0.00000   0.00000   0.00004   0.00004  -0.00000
   D19        3.14159   0.00000   0.00000   0.00000   0.00000   3.14159
   D20       -3.14158   0.00000   0.00000  -0.00001  -0.00001   3.14159
   D21        0.00004  -0.00000   0.00000  -0.00004  -0.00004   0.00000
         Item               Value     Threshold  Converged?
 Maximum Force            0.000273     0.000450     YES
 RMS     Force            0.000061     0.000300     YES
 Maximum Displacement     0.000989     0.001800     YES
 RMS     Displacement     0.000360     0.001200     YES
 Predicted change in Energy=-3.006482D-07
 Optimization completed.
    -- Stationary point found.
                           ----------------------------
                           !   Optimized Parameters   !
                           ! (Angstroms and Degrees)  !
 --------------------------                            --------------------------
 ! Name  Definition              Value          Derivative Info.                !
 --------------------------------------------------------------------------------
 ! R1    R(1,2)                  1.4015         -DE/DX =    0.0                 !
 ! R2    R(1,9)                  1.3824         -DE/DX =    0.0                 !
 ! R3    R(2,3)                  1.3775         -DE/DX =    0.0                 !
 ! R4    R(3,4)                  1.406          -DE/DX =    0.0001              !
 ! R5    R(3,10)                 1.0899         -DE/DX =    0.0                 !
 ! R6    R(4,5)                  1.4782         -DE/DX =    0.0002              !
 ! R7    R(4,8)                  1.3948         -DE/DX =    0.0                 !
 ! R8    R(5,6)                  1.2278         -DE/DX =    0.0                 !
 ! R9    R(5,7)                  1.2281         -DE/DX =   -0.0001              !
 ! R10   R(8,9)                  1.405          -DE/DX =    0.0001              !
 ! R11   R(8,11)                 1.0873         -DE/DX =    0.0                 !
 ! R12   R(9,12)                 1.0917         -DE/DX =    0.0                 !
 ! A1    A(2,1,9)              121.4068         -DE/DX =    0.0                 !
 ! A2    A(1,2,3)              121.2433         -DE/DX =    0.0                 !
 ! A3    A(2,3,4)              117.0024         -DE/DX =    0.0                 !
 ! A4    A(2,3,10)             122.6927         -DE/DX =    0.0                 !
 ! A5    A(4,3,10)             120.3049         -DE/DX =   -0.0001              !
 ! A6    A(3,4,5)              118.432          -DE/DX =    0.0                 !
 ! A7    A(3,4,8)              122.7288         -DE/DX =   -0.0001              !
 ! A8    A(5,4,8)              118.8392         -DE/DX =    0.0001              !
 ! A9    A(4,5,6)              117.6199         -DE/DX =    0.0001              !
 ! A10   A(4,5,7)              117.5814         -DE/DX =    0.0001              !
 ! A11   A(6,5,7)              124.7987         -DE/DX =   -0.0003              !
 ! A12   A(4,8,9)              118.9923         -DE/DX =    0.0                 !
 ! A13   A(4,8,11)             119.712          -DE/DX =    0.0                 !
 ! A14   A(9,8,11)             121.2958         -DE/DX =    0.0                 !
 ! A15   A(1,9,8)              118.6263         -DE/DX =    0.0                 !
 ! A16   A(1,9,12)             120.8665         -DE/DX =    0.0                 !
 ! A17   A(8,9,12)             120.5071         -DE/DX =   -0.0001              !
 ! D1    D(9,1,2,3)             -0.002          -DE/DX =    0.0                 !
 ! D2    D(2,1,9,8)              0.0018         -DE/DX =    0.0                 !
 ! D3    D(2,1,9,12)          -180.0            -DE/DX =    0.0                 !
 ! D4    D(1,2,3,4)              0.0024         -DE/DX =    0.0                 !
 ! D5    D(1,2,3,10)           179.9999         -DE/DX =    0.0                 !
 ! D6    D(2,3,4,5)           -180.0039         -DE/DX =    0.0                 !
 ! D7    D(2,3,4,8)             -0.0028         -DE/DX =    0.0                 !
 ! D8    D(10,3,4,5)            -0.0015         -DE/DX =    0.0                 !
 ! D9    D(10,3,4,8)          -180.0003         -DE/DX =    0.0                 !
 ! D10   D(3,4,5,6)              0.0099         -DE/DX =    0.0                 !
 ! D11   D(3,4,5,7)            180.0376         -DE/DX =    0.0                 !
 ! D12   D(8,4,5,6)            180.0088         -DE/DX =    0.0                 !
 ! D13   D(8,4,5,7)              0.0365         -DE/DX =    0.0                 !
 ! D14   D(3,4,8,9)              0.0026         -DE/DX =    0.0                 !
 ! D15   D(3,4,8,11)           179.9999         -DE/DX =    0.0                 !
 ! D16   D(5,4,8,9)           -179.9962         -DE/DX =    0.0                 !
 ! D17   D(5,4,8,11)             0.0011         -DE/DX =    0.0                 !
 ! D18   D(4,8,9,1)             -0.002          -DE/DX =    0.0                 !
 ! D19   D(4,8,9,12)           179.9997         -DE/DX =    0.0                 !
 ! D20   D(11,8,9,1)           180.0007         -DE/DX =    0.0                 !
 ! D21   D(11,8,9,12)            0.0024         -DE/DX =    0.0                 !
 --------------------------------------------------------------------------------
 GradGradGradGradGradGradGradGradGradGradGradGradGradGradGradGradGradGrad

 Leave Link  103 at Sat Jun 27 02:15:37 2020, MaxMem=   524288000 cpu:               0.0 elap:               0.0
 (Enter /home/ubuntu/g16/l9999.exe)

 ----------------------------------------------------------------------

 Electric dipole moment (input orientation):
 (Debye = 10**-18 statcoulomb cm , SI units = C m)
                  (au)            (Debye)         (10**-30 SI)
   Tot        0.128586D+01      0.326834D+01      0.109020D+02
   x         -0.117859D+01     -0.299569D+01     -0.999253D+01
   y         -0.511606D+00     -0.130037D+01     -0.433758D+01
   z          0.512347D-01      0.130226D+00      0.434386D+00

 Dipole polarizability, Alpha (input orientation).
 (esu units = cm**3 , SI units = C**2 m**2 J**-1)
 Alpha(0;0):
               (au)            (10**-24 esu)      (10**-40 SI)
   iso        0.855442D+02      0.126763D+02      0.141043D+02
   aniso      0.573239D+02      0.849452D+01      0.945143D+01
   xx         0.111968D+03      0.165919D+02      0.184610D+02
   yx         0.445192D+01      0.659706D+00      0.734022D+00
   yy         0.954523D+02      0.141446D+02      0.157380D+02
   zx        -0.723797D+00     -0.107256D+00     -0.119338D+00
   zy        -0.410051D+01     -0.607633D+00     -0.676083D+00
   zz         0.492125D+02      0.729254D+01      0.811404D+01

 ----------------------------------------------------------------------

 Dipole orientation:
     6         -0.17814830          0.11549056          2.60929586
     6         -1.04549896          1.75191999          0.71601488
     6         -0.74196727          1.18078010         -1.80543627
     6          0.47284921         -1.10986926         -2.38574306
     7          0.82993929         -1.78228872         -5.07336228
     8          0.04117294         -0.29352394         -6.66863223
     8          1.89321614         -3.79008920         -5.54654961
     6          1.35096327         -2.76655150         -0.53313004
     6          1.01462095         -2.13353950          2.02329952
     1         -1.39878181          2.42001985         -3.31367393
     1          2.27808638         -4.51468713         -1.08681795
     1          1.68369084         -3.39588615          3.51159827

 Electric dipole moment (dipole orientation):
 (Debye = 10**-18 statcoulomb cm , SI units = C m)
                  (au)            (Debye)         (10**-30 SI)
   Tot        0.128586D+01      0.326834D+01      0.109020D+02
   x          0.000000D+00      0.000000D+00      0.000000D+00
   y          0.000000D+00      0.000000D+00      0.000000D+00
   z          0.128586D+01      0.326834D+01      0.109020D+02

 Dipole polarizability, Alpha (dipole orientation).
 (esu units = cm**3 , SI units = C**2 m**2 J**-1)
 Alpha(0;0):
               (au)            (10**-24 esu)      (10**-40 SI)
   iso        0.855442D+02      0.126763D+02      0.141043D+02
   aniso      0.573239D+02      0.849452D+01      0.945143D+01
   xx         0.589965D+02      0.874239D+01      0.972722D+01
   yx        -0.191394D+02     -0.283617D+01     -0.315566D+01
   yy         0.849524D+02      0.125886D+02      0.140068D+02
   zx        -0.135031D+01     -0.200096D+00     -0.222636D+00
   zy         0.252235D+01      0.373774D+00      0.415880D+00
   zz         0.112684D+03      0.166980D+02      0.185790D+02

 ----------------------------------------------------------------------
 1\1\GINC-LC06-4-8\Freq\UB3LYP\Aug-CC-pVDZ\C6H3N1O2(3)\UBUNTU\27-Jun-20
 20\0\\#P Geom=AllCheck Guess=TCheck SCRF=Check GenChk UB3LYP/Aug-CC-pV
 DZ Freq\\t-4-NO2C6H3_UB3LYP-aug-cc-pVDZ\\0,3\C,-1.3051312251,-0.464497
 3954,-0.0070751421\C,-0.7786875585,0.8292195468,-0.1231474284\C,0.5811
 421798,1.0475399825,-0.1493392012\C,1.4111970227,-0.083358563,-0.05463
 20242\N,2.8758632966,0.114571999,-0.0796736793\O,3.2931541642,1.264715
 5774,-0.1824364195\O,3.5860663773,-0.8838652572,0.0033426045\C,0.90933
 12404,-1.3795964311,0.0615392731\C,-0.482281639,-1.571435238,0.0855811
 459\H,1.0159397508,2.0429297727,-0.2388019818\H,1.5965506402,-2.219326
 389,0.1314901179\H,-0.9018742493,-2.5752676046,0.1757027351\\Version=E
 S64L-G16RevA.03\State=3-A\HF=-435.4257772\S2=2.008297\S2-1=0.\S2A=2.00
 0037\RMSD=4.241e-09\RMSF=6.493e-05\ZeroPoint=0.0766855\Thermal=0.08349
 55\Dipole=-1.1785933,-0.5116063,0.0512347\DipoleDeriv=0.0233804,0.0208
 176,-0.0020616,-0.0320723,0.1715248,-0.0168393,0.0025486,-0.0171144,-0
 .0211117,-0.0751366,-0.1219664,0.0107573,-0.016863,-0.0353708,-0.00221
 57,0.0015616,-0.0016675,-0.0616005,-0.0127569,0.0923029,-0.0080692,-0.
 1485744,-0.1219783,0.0103282,0.0129193,0.0090617,-0.0137091,-0.3919194
 ,-0.1043506,0.0112975,-0.137088,0.0880889,-0.0057077,0.0141099,-0.0058
 596,0.0156001,1.8077143,0.063322,-0.014007,0.095228,1.4993915,-0.11197
 05,-0.0169053,-0.11189,0.2299085,-0.7238339,-0.3369781,0.0320006,-0.22
 60672,-0.9509694,0.0638993,0.0224367,0.064738,-0.2367279,-0.9097915,0.
 3418118,-0.0261542,0.2326371,-0.7848974,0.0475923,-0.0165028,0.046853,
 -0.2291625,0.1295075,-0.0770965,0.0057261,0.1590721,-0.0306846,-0.0041
 154,-0.0149602,-0.0028539,-0.0677856,-0.1819253,0.1178656,-0.009773,0.
 0898406,-0.0620986,-0.001814,-0.0073013,-0.0019712,-0.0773775,0.156613
 5,-0.0277655,0.002496,0.0123235,0.1190016,0.0043702,-0.0009784,0.00457
 42,0.1691484,0.1004269,0.0392673,-0.0032706,0.0155076,0.0791445,0.0048
 294,-0.0012027,0.0046732,0.1346979,0.0777209,-0.0072302,0.0010581,-0.0
 439441,0.0288477,0.0116432,0.0042746,0.0114564,0.1581199\Polar=111.967
 7642,4.4519189,95.4522853,-0.7237966,-4.1005125,49.2124898\Quadrupole=
 -5.5413535,4.5069169,1.0344366,0.9009455,-0.0431892,-0.3124703\PG=C01 
 [X(C6H3N1O2)]\NImag=0\\0.35747729,-0.01680884,0.59793972,-0.00009930,-
 0.04735668,0.06044509,-0.11873810,-0.09046354,0.00834054,0.50293756,-0
 .10007154,-0.31533863,0.02474997,0.12160575,0.45971869,0.00918199,0.02
 470013,-0.04098286,-0.01297445,-0.03595194,0.05975355,-0.00922867,-0.0
 7792656,0.00693373,-0.34713889,-0.01973828,0.00328123,0.64760581,-0.03
 636887,0.02496735,-0.00101087,-0.06103762,-0.10908488,0.00563639,0.062
 15927,0.67289548,0.00329296,-0.00079109,0.01133344,0.00689773,0.005418
 54,-0.04888524,-0.00819456,-0.04877450,0.12406071,-0.00265856,0.004757
 51,-0.00040287,-0.05360962,0.00582560,-0.00018525,-0.15097405,0.120157
 57,-0.01005747,0.52450483,0.00807169,-0.06762735,0.00589904,0.06277953
 ,0.04770749,-0.00374160,0.05388093,-0.24887607,0.01617742,-0.01782883,
 0.72882823,-0.00069166,0.00591290,-0.00033270,-0.00517320,-0.00343937,
 0.00907766,-0.00425347,0.01583025,-0.06231544,-0.00051250,-0.05219316,
 0.13626400,-0.00001255,0.00022327,-0.00003725,0.00575444,0.00793788,-0
 .00067951,-0.03864484,0.00871526,-0.00056137,-0.11143567,0.00082797,0.
 00007388,0.63712874,-0.00020996,-0.00537004,0.00017411,0.00821001,-0.0
 0354414,0.00100168,0.01882773,0.01219862,-0.00121853,-0.00182978,-0.10
 156765,0.00184614,-0.04086705,0.92971275,0.00000201,0.00016919,-0.0034
 1597,-0.00070638,0.00100615,0.00829683,-0.00145299,-0.00117041,-0.0004
 9718,0.00033875,0.00183845,-0.08079115,0.00128351,-0.06095333,0.233854
 88,-0.00036205,-0.00174506,0.00015711,0.00061393,-0.00098804,0.0000802
 8,-0.00419840,-0.00183285,0.00018640,-0.02530567,-0.05119503,0.0047179
 7,-0.19232495,-0.14591145,0.01337776,0.18960243,0.00062758,0.00055149,
 -0.00001025,-0.00294515,-0.00035806,-0.00001130,0.00916366,-0.00348067
 ,0.00034965,-0.03561613,-0.02513948,0.00408503,-0.14327719,-0.46020798
 ,0.03431049,0.16542916,0.59816240,-0.00005073,0.00000325,0.00047995,0.
 00025117,-0.00002256,-0.00066138,-0.00077284,0.00040886,0.00104172,0.0
 0334099,0.00416125,0.01899134,0.01315984,0.03434486,-0.07932085,-0.015
 32903,-0.05067936,0.03254889,0.00017702,0.00124651,-0.00010756,-0.0040
 6360,0.00052442,-0.00003515,-0.00432869,-0.00572827,0.00054020,-0.0471
 3882,0.04271085,-0.00335431,-0.28493574,0.19571696,-0.01589772,0.04440
 863,0.01036657,-0.00100249,0.30260680,-0.00100802,0.00102048,-0.000041
 78,0.00139100,0.00090444,-0.00022403,-0.00047354,0.00239582,0.00002809
 ,0.03003641,-0.00154552,0.00165426,0.19132661,-0.36668055,0.02428905,0
 .03431911,-0.11760508,0.01235952,-0.24707761,0.48400560,0.00008884,-0.
 00005176,0.00049177,-0.00010758,-0.00022341,-0.00156655,0.00008223,0.0
 0005934,0.00268856,-0.00226470,0.00158712,0.01923083,-0.01549771,0.024
 25103,-0.07786069,-0.00309465,0.01250248,0.02526480,0.02000980,-0.0383
 9074,0.03109139,-0.04110866,0.07517904,-0.00631536,-0.03908302,-0.0291
 0113,0.00275597,0.04917550,-0.00522606,0.00023845,-0.12927534,-0.03410
 596,0.00335345,-0.02722775,-0.03008452,0.00277184,-0.00539137,-0.00134
 231,0.00016263,-0.00242218,-0.00748891,0.00067270,0.68343230,0.0228083
 6,0.04106312,-0.00278982,-0.03698574,-0.02973931,0.00285627,0.03440257
 ,-0.05224009,0.00502648,-0.08378984,-0.31386464,0.02271068,-0.02440280
 ,0.00678197,-0.00062077,0.00584360,0.00399081,-0.00011080,0.00246319,-
 0.00769111,0.00076894,-0.04628533,0.70202623,-0.00172742,-0.00306231,0
 .01084893,0.00344626,0.00281532,0.00040909,-0.00323204,0.00523076,0.00
 673918,0.00770533,0.02245349,-0.06159759,0.00226983,-0.00059735,-0.001
 77538,-0.00046794,-0.00007317,0.00308436,-0.00019402,0.00082589,0.0011
 9307,0.00115963,-0.04994207,0.13345405,-0.18400381,0.09142302,-0.00729
 680,0.06446098,0.03696066,-0.00351101,-0.05057591,0.02849659,-0.002244
 28,-0.02232582,-0.07373904,0.00660028,0.00885041,-0.00310521,0.0002710
 5,-0.00256417,-0.00237583,0.00021423,-0.00067670,0.00160901,-0.0001397
 7,-0.31098223,0.00688107,0.00068792,0.60299848,0.13253632,-0.25843230,
 0.01774574,-0.00187703,-0.04776221,0.00522532,0.02017163,-0.00496889,0
 .00011997,-0.02955644,0.01475424,-0.00069768,-0.00229091,-0.00616232,0
 .00133741,-0.00192054,0.00053638,-0.00015531,0.00032728,0.00139397,-0.
 00019460,-0.06831383,-0.11421957,0.00484597,0.02365073,0.69592486,-0.0
 1089854,0.01796030,-0.04944405,-0.00010933,0.00502267,0.01134617,-0.00
 151612,0.00007723,-0.00239874,0.00273136,-0.00046881,0.00505683,0.0002
 0245,0.00134235,0.00887089,0.00017494,-0.00015220,-0.00134541,-0.00002
 965,-0.00020118,-0.00079469,0.00727265,0.00445557,-0.06338034,-0.00459
 681,-0.05069194,0.12306785,-0.00524319,-0.00154737,0.00017582,-0.00914
 746,-0.02532050,0.00228084,-0.09116904,-0.10611330,0.00959536,0.011760
 00,0.01587936,-0.00141070,0.00143589,0.00124266,-0.00013472,-0.0038589
 8,-0.00108860,0.00011511,0.00068691,-0.00158117,0.00013526,-0.00186146
 ,0.00385384,-0.00031547,-0.00094591,0.00127237,-0.00011329,0.09774056,
 0.00014955,-0.00004895,0.00022513,-0.00263710,0.00078008,0.00020156,-0
 .09814692,-0.29123020,0.02306256,-0.01094534,-0.01838075,0.00236453,-0
 .00191733,-0.00253657,-0.00009319,-0.00179076,0.00230370,-0.00020173,-
 0.00030959,0.00082718,-0.00004536,0.00396204,-0.00143308,0.00030981,-0
 .00014443,0.00066242,-0.00017316,0.11244191,0.30978169,0.00002697,0.00
 023357,0.00251001,0.00029441,0.00031909,0.00289383,0.00889716,0.023106
 34,-0.03586472,0.00094106,0.00222418,0.00776032,0.00013879,-0.00010938
 ,-0.00369811,0.00017605,-0.00020499,-0.00009030,0.00002602,-0.00004047
 ,0.00028826,-0.00032510,0.00031067,0.00231677,0.00001042,-0.00018035,-
 0.00130721,-0.01025228,-0.02591248,0.02298482,-0.00541945,-0.00083456,
 0.00013288,-0.00019706,-0.00099179,0.00007825,0.00033019,-0.00311541,0
 .00029717,0.01110504,-0.00758448,0.00063115,0.00088436,-0.00011907,-0.
 00001856,0.00019550,0.00131960,-0.00011363,-0.00429555,-0.00139251,0.0
 0014537,-0.16743062,0.14405935,-0.01193682,-0.01315321,0.02165843,-0.0
 0179986,0.00065488,-0.00062767,0.00005621,0.17592043,-0.00187128,0.001
 29085,0.00042584,-0.00047067,0.00003397,-0.00016388,-0.00297382,-0.003
 11907,0.00072710,0.01898013,-0.01637760,0.00174801,0.00332131,-0.00284
 790,-0.00017298,-0.00019209,0.00130127,-0.00007009,-0.00015420,0.00301
 078,-0.00026127,0.14143734,-0.23423272,0.01654239,-0.00700919,0.007494
 51,-0.00015016,0.00095463,-0.00067232,0.00013092,-0.15242777,0.2434847
 9,0.00022319,0.00042044,0.00600456,0.00003245,-0.00016116,-0.00185154,
 0.00028553,0.00072808,0.00494052,-0.00169737,0.00188724,0.00455633,-0.
 00031924,-0.00015346,-0.00458928,0.00001797,-0.00007976,0.00049215,0.0
 0003748,-0.00025470,0.00003406,-0.01170457,0.01652679,-0.03829494,0.00
 070990,-0.00029852,0.00538641,-0.00008275,0.00013921,0.00086713,0.0125
 6199,-0.01833347,0.02658380,0.00912074,0.01649657,-0.00148094,-0.00178
 917,0.00335697,-0.00027322,-0.00085299,-0.00010630,0.00000939,-0.00464
 630,0.00030302,0.00001911,0.00052766,-0.00187030,0.00016545,-0.0008148
 9,-0.00026137,0.00002474,-0.00001807,0.00033962,-0.00002978,-0.0078251
 6,-0.02884825,0.00260475,-0.09108211,-0.09565802,0.00868220,-0.0000522
 1,-0.00003436,0.00001028,0.00140549,0.00040562,-0.00006458,0.09602701,
 -0.00785497,-0.02001574,0.00198956,0.00243058,-0.00331744,0.00047140,0
 .00065333,0.00054258,-0.00012569,-0.00019086,0.00208911,0.00017842,0.0
 0040297,0.00022381,0.00005996,-0.00001605,-0.00005478,-0.00003791,-0.0
 0008613,-0.00003600,-0.00000177,0.00136964,-0.00044161,0.00065126,-0.1
 0264737,-0.28922110,0.02297934,0.00000618,-0.00005318,0.00012290,0.000
 05588,0.00063344,-0.00042069,0.10587680,0.30965091,0.00065168,0.001862
 06,0.00206184,-0.00019161,0.00046672,0.00217045,-0.00005786,-0.0001214
 7,-0.00084280,0.00006266,0.00017537,0.00409958,-0.00003323,0.00007189,
 0.00092602,0.00000313,-0.00003662,-0.00048526,0.00000740,-0.00000390,-
 0.00006080,-0.00004229,0.00080806,0.00700280,0.00929487,0.02294400,-0.
 03505771,0.00000681,0.00012311,0.00133920,-0.00003416,-0.00042242,-0.0
 0412918,-0.00966740,-0.02586678,0.02297585\\0.00002577,0.00002794,-0.0
 0000083,-0.00003242,-0.00001452,0.00000010,0.00015990,-0.00005426,0.00
 000449,-0.00001688,0.00008713,-0.00002740,0.00010944,0.00004528,0.0000
 6836,-0.00015452,0.00008271,-0.00003184,-0.00010886,-0.00015882,-0.000
 01354,0.00000631,-0.00000471,0.00000407,0.00011786,-0.00005161,0.00000
 016,-0.00004142,0.00004167,-0.00000414,-0.00000192,-0.00000705,0.00000
 031,-0.00006326,0.00000624,0.00000026\\\@


 NATURE REVEALS EVERY SECRET ONCE.
                    - RALPH WALDO EMERSON
 Job cpu time:       0 days  1 hours 19 minutes 22.4 seconds.
 Elapsed time:       0 days  0 hours 11 minutes 20.4 seconds.
 File lengths (MBytes):  RWF=    143 Int=      0 D2E=      0 Chk=      7 Scr=      1
 Normal termination of Gaussian 16 at Sat Jun 27 02:15:37 2020.
