 Entering Gaussian System, Link 0=/home/ubuntu/g16/g16
 Input=t-4-MeOPh+_UB3LYP-aug-cc-pVDZ-Opt.gjf
 Output=t-4-MeOPh+_UB3LYP-aug-cc-pVDZ-Opt.log
 Initial command:
 /home/ubuntu/g16/l1.exe "/home/ubuntu/g16/Gau-792.inp" -scrdir="/home/ubuntu/g16/"
 Entering Link 1 = /home/ubuntu/g16/l1.exe PID=       794.
  
 Copyright (c) 1988,1990,1992,1993,1995,1998,2003,2009,2016,
            Gaussian, Inc.  All Rights Reserved.
  
 This is part of the Gaussian(R) 16 program.  It is based on
 the Gaussian(R) 09 system (copyright 2009, Gaussian, Inc.),
 the Gaussian(R) 03 system (copyright 2003, Gaussian, Inc.),
 the Gaussian(R) 98 system (copyright 1998, Gaussian, Inc.),
 the Gaussian(R) 94 system (copyright 1995, Gaussian, Inc.),
 the Gaussian 92(TM) system (copyright 1992, Gaussian, Inc.),
 the Gaussian 90(TM) system (copyright 1990, Gaussian, Inc.),
 the Gaussian 88(TM) system (copyright 1988, Gaussian, Inc.),
 the Gaussian 86(TM) system (copyright 1986, Carnegie Mellon
 University), and the Gaussian 82(TM) system (copyright 1983,
 Carnegie Mellon University). Gaussian is a federally registered
 trademark of Gaussian, Inc.
  
 This software contains proprietary and confidential information,
 including trade secrets, belonging to Gaussian, Inc.
  
 This software is provided under written license and may be
 used, copied, transmitted, or stored only in accord with that
 written license.
  
 The following legend is applicable only to US Government
 contracts under FAR:
  
                    RESTRICTED RIGHTS LEGEND
  
 Use, reproduction and disclosure by the US Government is
 subject to restrictions as set forth in subparagraphs (a)
 and (c) of the Commercial Computer Software - Restricted
 Rights clause in FAR 52.227-19.
  
 Gaussian, Inc.
 340 Quinnipiac St., Bldg. 40, Wallingford CT 06492
  
  
 ---------------------------------------------------------------
 Warning -- This program may not be used in any manner that
 competes with the business of Gaussian, Inc. or will provide
 assistance to any competitor of Gaussian, Inc.  The licensee
 of this program is prohibited from giving any competitor of
 Gaussian, Inc. access to this program.  By using this program,
 the user acknowledges that Gaussian, Inc. is engaged in the
 business of creating and licensing software in the field of
 computational chemistry and represents and warrants to the
 licensee that it is not a competitor of Gaussian, Inc. and that
 it will not use this program in any manner prohibited above.
 ---------------------------------------------------------------
  

 Cite this work as:
 Gaussian 16, Revision A.03,
 M. J. Frisch, G. W. Trucks, H. B. Schlegel, G. E. Scuseria, 
 M. A. Robb, J. R. Cheeseman, G. Scalmani, V. Barone, 
 G. A. Petersson, H. Nakatsuji, X. Li, M. Caricato, A. V. Marenich, 
 J. Bloino, B. G. Janesko, R. Gomperts, B. Mennucci, H. P. Hratchian, 
 J. V. Ortiz, A. F. Izmaylov, J. L. Sonnenberg, D. Williams-Young, 
 F. Ding, F. Lipparini, F. Egidi, J. Goings, B. Peng, A. Petrone, 
 T. Henderson, D. Ranasinghe, V. G. Zakrzewski, J. Gao, N. Rega, 
 G. Zheng, W. Liang, M. Hada, M. Ehara, K. Toyota, R. Fukuda, 
 J. Hasegawa, M. Ishida, T. Nakajima, Y. Honda, O. Kitao, H. Nakai, 
 T. Vreven, K. Throssell, J. A. Montgomery, Jr., J. E. Peralta, 
 F. Ogliaro, M. J. Bearpark, J. J. Heyd, E. N. Brothers, K. N. Kudin, 
 V. N. Staroverov, T. A. Keith, R. Kobayashi, J. Normand, 
 K. Raghavachari, A. P. Rendell, J. C. Burant, S. S. Iyengar, 
 J. Tomasi, M. Cossi, J. M. Millam, M. Klene, C. Adamo, R. Cammi, 
 J. W. Ochterski, R. L. Martin, K. Morokuma, O. Farkas, 
 J. B. Foresman, and D. J. Fox, Gaussian, Inc., Wallingford CT, 2016.
 
 ******************************************
 Gaussian 16:  ES64L-G16RevA.03 25-Dec-2016
                27-Jun-2020 
 ******************************************
 %chk=t-4-MeOPh+_UB3LYP-aug-cc-pVDZ-Opt.chk
 %mem=500MW
 %nproc=7
 Will use up to    7 processors via shared memory.
 ----------------------------------------------------------------------
 #p opt=(maxcycles=777) freq ub3lyp/aug-cc-pVDZ pop=(Bonding,AllOrbital
 s,mk,no,nboread)
 ----------------------------------------------------------------------
 1/6=777,18=20,19=15,26=3,38=1/1,3;
 2/9=110,12=2,17=6,18=5,40=1/2;
 3/5=16,7=10,11=2,25=1,30=1,71=1,74=-5,116=2/1,2,3;
 4//1;
 5/5=2,38=5/2;
 6/7=2,8=2,9=2,10=2,15=8,20=1,22=-1,27=20,28=1,31=1,40=2,96=-1/1,2,7;
 7//1,2,3,16;
 1/6=777,18=20,19=15,26=3/3(2);
 2/9=110/2;
 99//99;
 2/9=110/2;
 3/5=16,7=10,11=2,25=1,30=1,71=1,74=-5,116=2/1,2,3;
 4/5=5,16=3,69=1/1;
 5/5=2,38=5/2;
 7//1,2,3,16;
 1/6=777,18=20,19=15,26=3/3(-5);
 2/9=110/2;
 6/7=2,8=2,9=2,10=2,15=8,19=2,20=1,22=-1,27=20,28=1,31=1,40=2,96=-1/1,2,7;
 99/9=1/99;
 Leave Link    1 at Sat Jun 27 00:24:12 2020, MaxMem=   524288000 cpu:               0.3 elap:               0.0
 (Enter /home/ubuntu/g16/l101.exe)
 -----------------------------
 t-4-MeOPh+_UB3LYP-aug-cc-pVDZ
 -----------------------------
 Symbolic Z-matrix:
 Charge =  1 Multiplicity = 3
 C                    -1.30632  -1.71127  -1.52761 
 C                     0.02955  -1.38638  -1.63791 
 C                     0.45654  -0.28462  -0.88999 
 C                    -0.32499   0.52327  -0.04705 
 C                    -1.66316   0.20463   0.06472 
 C                    -2.1648   -0.92165  -0.67441 
 H                    -1.75096  -2.55212  -2.06014 
 H                     0.71025  -1.95768  -2.26919 
 H                     0.10823   1.36541   0.49297 
 H                    -2.32273   0.7958    0.69684 
 O                    -3.40781  -1.32554  -0.64363 
 C                    -4.42989  -0.66324   0.16189 
 H                    -5.33145  -1.25494  -0.00374 
 H                    -4.56633   0.36226  -0.2004 
 H                    -4.13502  -0.68713   1.21735 
 
 ITRead=  0  0  0  0  0  0  0  0  0  0  0  0  0  0  0
 MicOpt= -1 -1 -1 -1 -1 -1 -1 -1 -1 -1 -1 -1 -1 -1 -1
 NAtoms=     15 NQM=       15 NQMF=       0 NMMI=      0 NMMIF=      0
                NMic=       0 NMicF=      0.
                    Isotopes and Nuclear Properties:
 (Nuclear quadrupole moments (NQMom) in fm**2, nuclear magnetic moments (NMagM)
  in nuclear magnetons)

  Atom         1           2           3           4           5           6           7           8           9          10
 IAtWgt=          12          12          12          12          12          12           1           1           1           1
 AtmWgt=  12.0000000  12.0000000  12.0000000  12.0000000  12.0000000  12.0000000   1.0078250   1.0078250   1.0078250   1.0078250
 NucSpn=           0           0           0           0           0           0           1           1           1           1
 AtZEff=  -0.0000000  -0.0000000  -0.0000000  -0.0000000  -0.0000000  -0.0000000  -0.0000000  -0.0000000  -0.0000000  -0.0000000
 NQMom=    0.0000000   0.0000000   0.0000000   0.0000000   0.0000000   0.0000000   0.0000000   0.0000000   0.0000000   0.0000000
 NMagM=    0.0000000   0.0000000   0.0000000   0.0000000   0.0000000   0.0000000   2.7928460   2.7928460   2.7928460   2.7928460
 AtZNuc=   6.0000000   6.0000000   6.0000000   6.0000000   6.0000000   6.0000000   1.0000000   1.0000000   1.0000000   1.0000000

  Atom        11          12          13          14          15
 IAtWgt=          16          12           1           1           1
 AtmWgt=  15.9949146  12.0000000   1.0078250   1.0078250   1.0078250
 NucSpn=           0           0           1           1           1
 AtZEff=  -0.0000000  -0.0000000  -0.0000000  -0.0000000  -0.0000000
 NQMom=    0.0000000   0.0000000   0.0000000   0.0000000   0.0000000
 NMagM=    0.0000000   0.0000000   2.7928460   2.7928460   2.7928460
 AtZNuc=   8.0000000   6.0000000   1.0000000   1.0000000   1.0000000
 Leave Link  101 at Sat Jun 27 00:24:13 2020, MaxMem=   524288000 cpu:               1.2 elap:               0.2
 (Enter /home/ubuntu/g16/l103.exe)

 GradGradGradGradGradGradGradGradGradGradGradGradGradGradGradGradGradGrad
 Berny optimization.
 Initialization pass.
                           ----------------------------
                           !    Initial Parameters    !
                           ! (Angstroms and Degrees)  !
 --------------------------                            --------------------------
 ! Name  Definition              Value          Derivative Info.                !
 --------------------------------------------------------------------------------
 ! R1    R(1,2)                  1.3792         estimate D2E/DX2                !
 ! R2    R(1,6)                  1.4451         estimate D2E/DX2                !
 ! R3    R(1,7)                  1.0901         estimate D2E/DX2                !
 ! R4    R(2,3)                  1.3984         estimate D2E/DX2                !
 ! R5    R(2,8)                  1.0901         estimate D2E/DX2                !
 ! R6    R(3,4)                  1.405          estimate D2E/DX2                !
 ! R7    R(4,5)                  1.3801         estimate D2E/DX2                !
 ! R8    R(4,9)                  1.0902         estimate D2E/DX2                !
 ! R9    R(5,6)                  1.4375         estimate D2E/DX2                !
 ! R10   R(5,10)                 1.0882         estimate D2E/DX2                !
 ! R11   R(6,11)                 1.3073         estimate D2E/DX2                !
 ! R12   R(11,12)                1.4602         estimate D2E/DX2                !
 ! R13   R(12,13)                1.091          estimate D2E/DX2                !
 ! R14   R(12,14)                1.0961         estimate D2E/DX2                !
 ! R15   R(12,15)                1.0961         estimate D2E/DX2                !
 ! A1    A(2,1,6)              119.5957         estimate D2E/DX2                !
 ! A2    A(2,1,7)              122.527          estimate D2E/DX2                !
 ! A3    A(6,1,7)              117.8769         estimate D2E/DX2                !
 ! A4    A(1,2,3)              116.0117         estimate D2E/DX2                !
 ! A5    A(1,2,8)              121.8491         estimate D2E/DX2                !
 ! A6    A(3,2,8)              122.139          estimate D2E/DX2                !
 ! A7    A(2,3,4)              127.1613         estimate D2E/DX2                !
 ! A8    A(3,4,5)              117.0761         estimate D2E/DX2                !
 ! A9    A(3,4,9)              121.3541         estimate D2E/DX2                !
 ! A10   A(5,4,9)              121.5698         estimate D2E/DX2                !
 ! A11   A(4,5,6)              118.5292         estimate D2E/DX2                !
 ! A12   A(4,5,10)             120.6189         estimate D2E/DX2                !
 ! A13   A(6,5,10)             120.8517         estimate D2E/DX2                !
 ! A14   A(1,6,5)              121.625          estimate D2E/DX2                !
 ! A15   A(1,6,11)             114.1991         estimate D2E/DX2                !
 ! A16   A(5,6,11)             124.1758         estimate D2E/DX2                !
 ! A17   A(6,11,12)            122.5735         estimate D2E/DX2                !
 ! A18   A(11,12,13)           104.399          estimate D2E/DX2                !
 ! A19   A(11,12,14)           109.2165         estimate D2E/DX2                !
 ! A20   A(11,12,15)           109.4511         estimate D2E/DX2                !
 ! A21   A(13,12,14)           110.7535         estimate D2E/DX2                !
 ! A22   A(13,12,15)           110.8945         estimate D2E/DX2                !
 ! A23   A(14,12,15)           111.8467         estimate D2E/DX2                !
 ! D1    D(6,1,2,3)              0.0437         estimate D2E/DX2                !
 ! D2    D(6,1,2,8)            179.8908         estimate D2E/DX2                !
 ! D3    D(7,1,2,3)           -179.722          estimate D2E/DX2                !
 ! D4    D(7,1,2,8)              0.1251         estimate D2E/DX2                !
 ! D5    D(2,1,6,5)              0.2294         estimate D2E/DX2                !
 ! D6    D(2,1,6,11)          -179.7136         estimate D2E/DX2                !
 ! D7    D(7,1,6,5)           -179.9941         estimate D2E/DX2                !
 ! D8    D(7,1,6,11)             0.0629         estimate D2E/DX2                !
 ! D9    D(1,2,3,4)             -0.189          estimate D2E/DX2                !
 ! D10   D(8,2,3,4)            179.9644         estimate D2E/DX2                !
 ! D11   D(2,3,4,5)              0.0454         estimate D2E/DX2                !
 ! D12   D(2,3,4,9)           -179.862          estimate D2E/DX2                !
 ! D13   D(3,4,5,6)              0.2336         estimate D2E/DX2                !
 ! D14   D(3,4,5,10)          -179.606          estimate D2E/DX2                !
 ! D15   D(9,4,5,6)           -179.8592         estimate D2E/DX2                !
 ! D16   D(9,4,5,10)             0.3011         estimate D2E/DX2                !
 ! D17   D(4,5,6,1)             -0.374          estimate D2E/DX2                !
 ! D18   D(4,5,6,11)           179.5632         estimate D2E/DX2                !
 ! D19   D(10,5,6,1)           179.4653         estimate D2E/DX2                !
 ! D20   D(10,5,6,11)           -0.5975         estimate D2E/DX2                !
 ! D21   D(1,6,11,12)          179.7844         estimate D2E/DX2                !
 ! D22   D(5,6,11,12)           -0.157          estimate D2E/DX2                !
 ! D23   D(6,11,12,13)        -178.0645         estimate D2E/DX2                !
 ! D24   D(6,11,12,14)          63.4513         estimate D2E/DX2                !
 ! D25   D(6,11,12,15)         -59.3026         estimate D2E/DX2                !
 --------------------------------------------------------------------------------
 Trust Radius=3.00D-01 FncErr=1.00D-07 GrdErr=1.00D-06 EigMax=2.50D+02 EigMin=1.00D-04
 Number of steps in this run=    100 maximum allowed number of steps=    100.
 GradGradGradGradGradGradGradGradGradGradGradGradGradGradGradGradGradGrad

 Leave Link  103 at Sat Jun 27 00:24:13 2020, MaxMem=   524288000 cpu:               0.0 elap:               0.0
 (Enter /home/ubuntu/g16/l202.exe)
                          Input orientation:                          
 ---------------------------------------------------------------------
 Center     Atomic      Atomic             Coordinates (Angstroms)
 Number     Number       Type             X           Y           Z
 ---------------------------------------------------------------------
      1          6           0       -1.306320   -1.711270   -1.527610
      2          6           0        0.029550   -1.386380   -1.637910
      3          6           0        0.456540   -0.284620   -0.889990
      4          6           0       -0.324990    0.523270   -0.047050
      5          6           0       -1.663160    0.204630    0.064720
      6          6           0       -2.164800   -0.921650   -0.674410
      7          1           0       -1.750960   -2.552120   -2.060140
      8          1           0        0.710250   -1.957680   -2.269190
      9          1           0        0.108230    1.365410    0.492970
     10          1           0       -2.322730    0.795800    0.696840
     11          8           0       -3.407810   -1.325540   -0.643630
     12          6           0       -4.429890   -0.663240    0.161890
     13          1           0       -5.331450   -1.254940   -0.003740
     14          1           0       -4.566330    0.362260   -0.200400
     15          1           0       -4.135020   -0.687130    1.217350
 ---------------------------------------------------------------------
                    Distance matrix (angstroms):
                    1          2          3          4          5
     1  C    0.000000
     2  C    1.379227   0.000000
     3  C    2.355751   1.398420   0.000000
     4  C    2.854511   2.510637   1.404999   0.000000
     5  C    2.516649   2.880196   2.375703   1.380117   0.000000
     6  C    1.445143   2.441204   2.706235   2.422039   1.437520
     7  H    1.090102   2.169664   3.373998   3.942581   3.481725
     8  H    2.162687   1.090069   2.183046   3.487799   3.969357
     9  H    3.943305   3.481262   2.180940   1.090184   2.160701
    10  H    3.502380   3.968147   3.377822   2.149095   1.088159
    11  O    2.312243   3.578790   4.009664   3.643870   2.426311
    12  C    3.702630   4.863005   5.012684   4.278045   2.901282
    13  H    4.328058   5.606078   5.935300   5.313055   3.948593
    14  H    4.085178   5.123113   5.111087   4.247164   2.919509
    15  H    4.072495   5.097559   5.068069   4.192863   2.869474
                    6          7          8          9         10
     6  C    0.000000
     7  H    2.179437   0.000000
     8  H    3.447114   2.540594   0.000000
     9  H    3.429298   5.032097   4.362898   0.000000
    10  H    2.203384   4.374520   5.057465   2.505112   0.000000
    11  O    1.307344   2.501230   4.472188   4.571171   2.733924
    12  C    2.428334   3.960044   5.831532   4.981924   2.618223
    13  H    3.254006   4.327975   6.490628   6.058306   3.707930
    14  H    2.764138   4.458537   6.124076   4.831002   2.454941
    15  H    2.741445   4.461375   6.103024   4.768943   2.398835
                   11         12         13         14         15
    11  O    0.000000
    12  C    1.460189   0.000000
    13  H    2.028505   1.091033   0.000000
    14  H    2.094586   1.096139   1.799839   0.000000
    15  H    2.097534   1.096136   1.801364   1.815837   0.000000
 Stoichiometry    C7H7O(1+,3)
 Framework group  C1[X(C7H7O)]
 Deg. of freedom    39
 Full point group                 C1      NOp   1
 Largest Abelian subgroup         C1      NOp   1
 Largest concise Abelian subgroup C1      NOp   1
                         Standard orientation:                         
 ---------------------------------------------------------------------
 Center     Atomic      Atomic             Coordinates (Angstroms)
 Number     Number       Type             X           Y           Z
 ---------------------------------------------------------------------
      1          6           0       -0.605801   -1.310628    0.002645
      2          6           0       -1.947612   -0.991564   -0.000729
      3          6           0       -2.253518    0.372982   -0.004446
      4          6           0       -1.346611    1.446077   -0.001413
      5          6           0       -0.002569    1.132654    0.005078
      6          6           0        0.379258   -0.253227    0.003132
      7          1           0       -0.248172   -2.340395    0.001241
      8          1           0       -2.721421   -1.759330   -0.002974
      9          1           0       -1.691509    2.480265   -0.002574
     10          1           0        0.749803    1.918749    0.014142
     11          8           0        1.617055   -0.673939    0.000479
     12          6           0        2.757351    0.238122   -0.004171
     13          1           0        3.628825   -0.417257   -0.041120
     14          1           0        2.752644    0.826325    0.920770
     15          1           0        2.710405    0.876661   -0.893877
 ---------------------------------------------------------------------
 Rotational constants (GHZ):           4.8155311           1.6393706           1.2329364
 Leave Link  202 at Sat Jun 27 00:24:13 2020, MaxMem=   524288000 cpu:               0.0 elap:               0.0
 (Enter /home/ubuntu/g16/l301.exe)
 Standard basis: Aug-CC-pVDZ (5D, 7F)
 Ernie: Thresh=  0.10000D-02 Tol=  0.10000D-05 Strict=F.
 Ernie:  16 primitive shells out of 249 were deleted.
 There are   263 symmetry adapted cartesian basis functions of A   symmetry.
 There are   247 symmetry adapted basis functions of A   symmetry.
   247 basis functions,   421 primitive gaussians,   263 cartesian basis functions
    29 alpha electrons       27 beta electrons
       nuclear repulsion energy       333.4786714946 Hartrees.
 IExCor=  402 DFT=T Ex+Corr=B3LYP ExCW=0 ScaHFX=  0.200000
 ScaDFX=  0.800000  0.720000  1.000000  0.810000 ScalE2=  1.000000  1.000000
 IRadAn=      5 IRanWt=     -1 IRanGd=            0 ICorTp=0 IEmpDi=  4
 NAtoms=   15 NActive=   15 NUniq=   15 SFac= 1.00D+00 NAtFMM=   60 NAOKFM=F Big=F
 Integral buffers will be    131072 words long.
 Raffenetti 2 integral format.
 Two-electron integral symmetry is turned on.
 Leave Link  301 at Sat Jun 27 00:24:13 2020, MaxMem=   524288000 cpu:               0.2 elap:               0.0
 (Enter /home/ubuntu/g16/l302.exe)
 NPDir=0 NMtPBC=     1 NCelOv=     1 NCel=       1 NClECP=     1 NCelD=      1
         NCelK=      1 NCelE2=     1 NClLst=     1 CellRange=     0.0.
 One-electron integrals computed using PRISM.
 One-electron integral symmetry used in STVInt
 NBasis=   247 RedAO= T EigKep=  4.10D-06  NBF=   247
 NBsUse=   247 1.00D-06 EigRej= -1.00D+00 NBFU=   247
 Precomputing XC quadrature grid using
 IXCGrd= 4 IRadAn=           5 IRanWt=          -1 IRanGd=           0 AccXCQ= 0.00D+00.
 Generated NRdTot=       0 NPtTot=           0 NUsed=           0 NTot=          32
 NSgBfM=   263   263   263   263   263 MxSgAt=    15 MxSgA2=    15.
 Leave Link  302 at Sat Jun 27 00:24:13 2020, MaxMem=   524288000 cpu:               2.4 elap:               0.3
 (Enter /home/ubuntu/g16/l303.exe)
 DipDrv:  MaxL=1.
 Leave Link  303 at Sat Jun 27 00:24:13 2020, MaxMem=   524288000 cpu:               0.3 elap:               0.0
 (Enter /home/ubuntu/g16/l401.exe)
 ExpMin= 2.97D-02 ExpMax= 1.17D+04 ExpMxC= 4.01D+02 IAcc=3 IRadAn=         5 AccDes= 0.00D+00
 Harris functional with IExCor=  402 and IRadAn=       5 diagonalized for initial guess.
 HarFok:  IExCor=  402 AccDes= 0.00D+00 IRadAn=         5 IDoV= 1 UseB2=F ITyADJ=14
 ICtDFT=  3500011 ScaDFX=  1.000000  1.000000  1.000000  1.000000
 FoFCou: FMM=F IPFlag=           0 FMFlag=      100000 FMFlg1=           0
         NFxFlg=           0 DoJE=T BraDBF=F KetDBF=T FulRan=T
         wScrn=  0.000000 ICntrl=       500 IOpCl=  0 I1Cent=   200000004 NGrid=           0
         NMat0=    1 NMatS0=      1 NMatT0=    0 NMatD0=    1 NMtDS0=    0 NMtDT0=    0
 Petite list used in FoFCou.
 Harris En= -345.798884915945    
 JPrj=0 DoOrth=F DoCkMO=F.
 Initial guess <Sx>= 0.0000 <Sy>= 0.0000 <Sz>= 1.0000 <S**2>= 2.0000 S= 1.0000
 Leave Link  401 at Sat Jun 27 00:24:15 2020, MaxMem=   524288000 cpu:              15.9 elap:               2.3
 (Enter /home/ubuntu/g16/l502.exe)
 Integral symmetry usage will be decided dynamically.
 UHF open shell SCF:
 Using DIIS extrapolation, IDIIS=  1040.
 NGot=   524288000 LenX=   524145252 LenY=   524075642
 Requested convergence on RMS density matrix=1.00D-08 within 128 cycles.
 Requested convergence on MAX density matrix=1.00D-06.
 Requested convergence on             energy=1.00D-06.
 No special actions if energy rises.
 Fock matrices will be formed incrementally for  20 cycles.

 Cycle   1  Pass 1  IDiag  1:
 FoFJK:  IHMeth= 1 ICntrl=       0 DoSepK=F KAlg= 0 I1Cent=           0 FoldK=F
 IRaf= 990000000 NMat=       1 IRICut=       1 DoRegI=T DoRafI=F ISym2E= 0 IDoP0=0 IntGTp=1.
 FoFCou: FMM=F IPFlag=           0 FMFlag=      100000 FMFlg1=           0
         NFxFlg=           0 DoJE=F BraDBF=F KetDBF=F FulRan=T
         wScrn=  0.000000 ICntrl=         0 IOpCl=  1 I1Cent=           0 NGrid=           0
         NMat0=    1 NMatS0=      1 NMatT0=    0 NMatD0=    1 NMtDS0=    0 NMtDT0=    0
 Symmetry not used in FoFCou.
 E= -345.723040362867    
 DIIS: error= 1.77D-02 at cycle   1 NSaved=   1.
 NSaved= 1 IEnMin= 1 EnMin= -345.723040362867     IErMin= 1 ErrMin= 1.77D-02
 ErrMax= 1.77D-02  0.00D+00 EMaxC= 1.00D-01 BMatC= 4.00D-01 BMatP= 4.00D-01
 IDIUse=3 WtCom= 8.23D-01 WtEn= 1.77D-01
 Coeff-Com:  0.100D+01
 Coeff-En:   0.100D+01
 Coeff:      0.100D+01
 Gap=     0.264 Goal=   None    Shift=    0.000
 Gap=     0.049 Goal=   None    Shift=    0.000
 GapD=    0.049 DampG=0.250 DampE=0.500 DampFc=0.2500 IDamp=-1.
 Damping current iteration by 2.50D-01
 RMSDP=3.25D-02 MaxDP=1.24D+00              OVMax= 1.77D-01

 Cycle   2  Pass 1  IDiag  1:
 RMSU=  3.37D-03    CP:  9.05D-01
 E= -345.759366094157     Delta-E=       -0.036325731290 Rises=F Damp=T
 DIIS: error= 9.98D-03 at cycle   2 NSaved=   2.
 NSaved= 2 IEnMin= 2 EnMin= -345.759366094157     IErMin= 2 ErrMin= 9.98D-03
 ErrMax= 9.98D-03  0.00D+00 EMaxC= 1.00D-01 BMatC= 1.16D-01 BMatP= 4.00D-01
 IDIUse=3 WtCom= 9.00D-01 WtEn= 9.98D-02
 Coeff-Com: -0.864D+00 0.186D+01
 Coeff-En:   0.000D+00 0.100D+01
 Coeff:     -0.778D+00 0.178D+01
 Gap=     0.238 Goal=   None    Shift=    0.000
 Gap=     0.112 Goal=   None    Shift=    0.000
 RMSDP=2.13D-02 MaxDP=8.66D-01 DE=-3.63D-02 OVMax= 1.35D-01

 Cycle   3  Pass 1  IDiag  1:
 RMSU=  3.78D-03    CP:  6.50D-01  2.88D+00
 E= -345.820498057625     Delta-E=       -0.061131963467 Rises=F Damp=F
 DIIS: error= 6.36D-03 at cycle   3 NSaved=   3.
 NSaved= 3 IEnMin= 3 EnMin= -345.820498057625     IErMin= 3 ErrMin= 6.36D-03
 ErrMax= 6.36D-03  0.00D+00 EMaxC= 1.00D-01 BMatC= 3.22D-02 BMatP= 1.16D-01
 IDIUse=3 WtCom= 9.36D-01 WtEn= 6.36D-02
 Coeff-Com: -0.483D+00 0.944D+00 0.539D+00
 Coeff-En:   0.000D+00 0.000D+00 0.100D+01
 Coeff:     -0.452D+00 0.884D+00 0.568D+00
 Gap=     0.226 Goal=   None    Shift=    0.000
 Gap=     0.102 Goal=   None    Shift=    0.000
 RMSDP=1.29D-03 MaxDP=6.13D-02 DE=-6.11D-02 OVMax= 9.09D-02

 Cycle   4  Pass 1  IDiag  1:
 RMSU=  9.83D-04    CP:  6.54D-01  2.85D+00  8.00D-01
 E= -345.825004621303     Delta-E=       -0.004506563678 Rises=F Damp=F
 DIIS: error= 4.16D-03 at cycle   4 NSaved=   4.
 NSaved= 4 IEnMin= 4 EnMin= -345.825004621303     IErMin= 4 ErrMin= 4.16D-03
 ErrMax= 4.16D-03  0.00D+00 EMaxC= 1.00D-01 BMatC= 1.47D-02 BMatP= 3.22D-02
 IDIUse=3 WtCom= 9.58D-01 WtEn= 4.16D-02
 Coeff-Com: -0.164D+00 0.290D+00 0.402D+00 0.472D+00
 Coeff-En:   0.000D+00 0.000D+00 0.345D+00 0.655D+00
 Coeff:     -0.157D+00 0.278D+00 0.400D+00 0.479D+00
 Gap=     0.228 Goal=   None    Shift=    0.000
 Gap=     0.105 Goal=   None    Shift=    0.000
 RMSDP=5.75D-04 MaxDP=3.19D-02 DE=-4.51D-03 OVMax= 4.45D-02

 Cycle   5  Pass 1  IDiag  1:
 RMSU=  5.07D-04    CP:  6.54D-01  2.83D+00  8.29D-01  7.52D-01
 E= -345.828730422104     Delta-E=       -0.003725800801 Rises=F Damp=F
 DIIS: error= 7.70D-04 at cycle   5 NSaved=   5.
 NSaved= 5 IEnMin= 5 EnMin= -345.828730422104     IErMin= 5 ErrMin= 7.70D-04
 ErrMax= 7.70D-04  0.00D+00 EMaxC= 1.00D-01 BMatC= 6.29D-04 BMatP= 1.47D-02
 IDIUse=3 WtCom= 9.92D-01 WtEn= 7.70D-03
 Coeff-Com: -0.151D-01 0.153D-01 0.116D+00 0.234D+00 0.650D+00
 Coeff-En:   0.000D+00 0.000D+00 0.000D+00 0.000D+00 0.100D+01
 Coeff:     -0.150D-01 0.152D-01 0.115D+00 0.232D+00 0.653D+00
 Gap=     0.222 Goal=   None    Shift=    0.000
 Gap=     0.107 Goal=   None    Shift=    0.000
 RMSDP=2.19D-04 MaxDP=1.52D-02 DE=-3.73D-03 OVMax= 9.70D-03

 Cycle   6  Pass 1  IDiag  1:
 RMSU=  1.76D-04    CP:  6.53D-01  2.85D+00  8.44D-01  7.31D-01  8.22D-01
 E= -345.828925555670     Delta-E=       -0.000195133567 Rises=F Damp=F
 DIIS: error= 2.56D-04 at cycle   6 NSaved=   6.
 NSaved= 6 IEnMin= 6 EnMin= -345.828925555670     IErMin= 6 ErrMin= 2.56D-04
 ErrMax= 2.56D-04  0.00D+00 EMaxC= 1.00D-01 BMatC= 6.69D-05 BMatP= 6.29D-04
 IDIUse=3 WtCom= 9.97D-01 WtEn= 2.56D-03
 Coeff-Com:  0.136D-01-0.291D-01-0.808D-02 0.296D-01 0.263D+00 0.731D+00
 Coeff-En:   0.000D+00 0.000D+00 0.000D+00 0.000D+00 0.000D+00 0.100D+01
 Coeff:      0.135D-01-0.290D-01-0.805D-02 0.295D-01 0.262D+00 0.732D+00
 Gap=     0.222 Goal=   None    Shift=    0.000
 Gap=     0.108 Goal=   None    Shift=    0.000
 RMSDP=8.26D-05 MaxDP=3.67D-03 DE=-1.95D-04 OVMax= 3.01D-03

 Cycle   7  Pass 1  IDiag  1:
 RMSU=  6.65D-05    CP:  6.53D-01  2.85D+00  8.44D-01  7.56D-01  8.97D-01
                    CP:  1.08D+00
 E= -345.828958048117     Delta-E=       -0.000032492446 Rises=F Damp=F
 DIIS: error= 1.70D-04 at cycle   7 NSaved=   7.
 NSaved= 7 IEnMin= 7 EnMin= -345.828958048117     IErMin= 7 ErrMin= 1.70D-04
 ErrMax= 1.70D-04  0.00D+00 EMaxC= 1.00D-01 BMatC= 1.21D-05 BMatP= 6.69D-05
 IDIUse=3 WtCom= 9.98D-01 WtEn= 1.70D-03
 Coeff-Com:  0.686D-02-0.116D-01-0.256D-01-0.356D-01-0.487D-01 0.225D+00
 Coeff-Com:  0.890D+00
 Coeff-En:   0.000D+00 0.000D+00 0.000D+00 0.000D+00 0.000D+00 0.000D+00
 Coeff-En:   0.100D+01
 Coeff:      0.685D-02-0.115D-01-0.256D-01-0.356D-01-0.486D-01 0.224D+00
 Coeff:      0.890D+00
 Gap=     0.222 Goal=   None    Shift=    0.000
 Gap=     0.108 Goal=   None    Shift=    0.000
 RMSDP=5.67D-05 MaxDP=2.74D-03 DE=-3.25D-05 OVMax= 3.10D-03

 Cycle   8  Pass 1  IDiag  1:
 RMSU=  3.91D-05    CP:  6.53D-01  2.85D+00  8.46D-01  7.60D-01  9.24D-01
                    CP:  1.26D+00  1.30D+00
 E= -345.828966398217     Delta-E=       -0.000008350101 Rises=F Damp=F
 DIIS: error= 1.37D-04 at cycle   8 NSaved=   8.
 NSaved= 8 IEnMin= 8 EnMin= -345.828966398217     IErMin= 8 ErrMin= 1.37D-04
 ErrMax= 1.37D-04  0.00D+00 EMaxC= 1.00D-01 BMatC= 9.12D-06 BMatP= 1.21D-05
 IDIUse=3 WtCom= 9.99D-01 WtEn= 1.37D-03
 Coeff-Com:  0.111D-02-0.386D-03-0.157D-01-0.308D-01-0.104D+00-0.366D-01
 Coeff-Com:  0.616D+00 0.570D+00
 Coeff-En:   0.000D+00 0.000D+00 0.000D+00 0.000D+00 0.000D+00 0.000D+00
 Coeff-En:   0.000D+00 0.100D+01
 Coeff:      0.111D-02-0.386D-03-0.157D-01-0.307D-01-0.104D+00-0.365D-01
 Coeff:      0.615D+00 0.571D+00
 Gap=     0.222 Goal=   None    Shift=    0.000
 Gap=     0.108 Goal=   None    Shift=    0.000
 RMSDP=3.23D-05 MaxDP=1.56D-03 DE=-8.35D-06 OVMax= 1.75D-03

 Cycle   9  Pass 1  IDiag  1:
 RMSU=  1.98D-05    CP:  6.53D-01  2.85D+00  8.45D-01  7.69D-01  9.25D-01
                    CP:  1.33D+00  1.59D+00  9.83D-01
 E= -345.828970475331     Delta-E=       -0.000004077113 Rises=F Damp=F
 DIIS: error= 4.88D-05 at cycle   9 NSaved=   9.
 NSaved= 9 IEnMin= 9 EnMin= -345.828970475331     IErMin= 9 ErrMin= 4.88D-05
 ErrMax= 4.88D-05  0.00D+00 EMaxC= 1.00D-01 BMatC= 7.25D-07 BMatP= 9.12D-06
 IDIUse=1 WtCom= 1.00D+00 WtEn= 0.00D+00
 Coeff-Com: -0.169D-02 0.323D-02 0.155D-02 0.132D-02-0.204D-01-0.613D-01
 Coeff-Com: -0.434D-01 0.138D+00 0.983D+00
 Coeff:     -0.169D-02 0.323D-02 0.155D-02 0.132D-02-0.204D-01-0.613D-01
 Coeff:     -0.434D-01 0.138D+00 0.983D+00
 Gap=     0.222 Goal=   None    Shift=    0.000
 Gap=     0.108 Goal=   None    Shift=    0.000
 RMSDP=1.96D-05 MaxDP=6.46D-04 DE=-4.08D-06 OVMax= 9.63D-04

 Cycle  10  Pass 1  IDiag  1:
 RMSU=  9.15D-06    CP:  6.53D-01  2.85D+00  8.44D-01  7.69D-01  9.26D-01
                    CP:  1.37D+00  1.75D+00  1.20D+00  1.41D+00
 E= -345.828971153744     Delta-E=       -0.000000678414 Rises=F Damp=F
 DIIS: error= 3.72D-05 at cycle  10 NSaved=  10.
 NSaved=10 IEnMin=10 EnMin= -345.828971153744     IErMin=10 ErrMin= 3.72D-05
 ErrMax= 3.72D-05  0.00D+00 EMaxC= 1.00D-01 BMatC= 4.28D-07 BMatP= 7.25D-07
 IDIUse=1 WtCom= 1.00D+00 WtEn= 0.00D+00
 Coeff-Com: -0.133D-02 0.215D-02 0.357D-02 0.656D-02 0.600D-02-0.314D-01
 Coeff-Com: -0.138D+00-0.182D-01 0.611D+00 0.559D+00
 Coeff:     -0.133D-02 0.215D-02 0.357D-02 0.656D-02 0.600D-02-0.314D-01
 Coeff:     -0.138D+00-0.182D-01 0.611D+00 0.559D+00
 Gap=     0.222 Goal=   None    Shift=    0.000
 Gap=     0.108 Goal=   None    Shift=    0.000
 RMSDP=7.85D-06 MaxDP=3.50D-04 DE=-6.78D-07 OVMax= 4.71D-04

 Cycle  11  Pass 1  IDiag  1:
 RMSU=  3.77D-06    CP:  6.53D-01  2.85D+00  8.44D-01  7.71D-01  9.25D-01
                    CP:  1.39D+00  1.78D+00  1.32D+00  1.54D+00  1.21D+00
 E= -345.828971339337     Delta-E=       -0.000000185593 Rises=F Damp=F
 DIIS: error= 1.00D-05 at cycle  11 NSaved=  11.
 NSaved=11 IEnMin=11 EnMin= -345.828971339337     IErMin=11 ErrMin= 1.00D-05
 ErrMax= 1.00D-05  0.00D+00 EMaxC= 1.00D-01 BMatC= 6.62D-08 BMatP= 4.28D-07
 IDIUse=1 WtCom= 1.00D+00 WtEn= 0.00D+00
 Coeff-Com: -0.291D-04-0.176D-03 0.101D-02 0.293D-02 0.116D-01 0.777D-02
 Coeff-Com: -0.495D-01-0.650D-01-0.104D+00 0.277D+00 0.919D+00
 Coeff:     -0.291D-04-0.176D-03 0.101D-02 0.293D-02 0.116D-01 0.777D-02
 Coeff:     -0.495D-01-0.650D-01-0.104D+00 0.277D+00 0.919D+00
 Gap=     0.222 Goal=   None    Shift=    0.000
 Gap=     0.108 Goal=   None    Shift=    0.000
 RMSDP=5.70D-06 MaxDP=1.95D-04 DE=-1.86D-07 OVMax= 2.54D-04

 Cycle  12  Pass 1  IDiag  1:
 RMSU=  1.94D-06    CP:  6.53D-01  2.85D+00  8.44D-01  7.71D-01  9.25D-01
                    CP:  1.39D+00  1.82D+00  1.37D+00  1.70D+00  1.45D+00
                    CP:  1.07D+00
 E= -345.828971388175     Delta-E=       -0.000000048837 Rises=F Damp=F
 DIIS: error= 3.71D-06 at cycle  12 NSaved=  12.
 NSaved=12 IEnMin=12 EnMin= -345.828971388175     IErMin=12 ErrMin= 3.71D-06
 ErrMax= 3.71D-06  0.00D+00 EMaxC= 1.00D-01 BMatC= 5.35D-09 BMatP= 6.62D-08
 IDIUse=1 WtCom= 1.00D+00 WtEn= 0.00D+00
 Coeff-Com:  0.852D-04-0.206D-03-0.934D-04 0.263D-03 0.254D-02 0.434D-02
 Coeff-Com: -0.169D-05-0.187D-01-0.804D-01 0.152D-01 0.259D+00 0.818D+00
 Coeff:      0.852D-04-0.206D-03-0.934D-04 0.263D-03 0.254D-02 0.434D-02
 Coeff:     -0.169D-05-0.187D-01-0.804D-01 0.152D-01 0.259D+00 0.818D+00
 Gap=     0.222 Goal=   None    Shift=    0.000
 Gap=     0.108 Goal=   None    Shift=    0.000
 RMSDP=1.28D-06 MaxDP=6.27D-05 DE=-4.88D-08 OVMax= 6.33D-05

 Cycle  13  Pass 1  IDiag  1:
 RMSU=  6.89D-07    CP:  6.53D-01  2.85D+00  8.44D-01  7.72D-01  9.25D-01
                    CP:  1.39D+00  1.83D+00  1.39D+00  1.73D+00  1.50D+00
                    CP:  1.14D+00  1.14D+00
 E= -345.828971391061     Delta-E=       -0.000000002886 Rises=F Damp=F
 DIIS: error= 1.63D-06 at cycle  13 NSaved=  13.
 NSaved=13 IEnMin=13 EnMin= -345.828971391061     IErMin=13 ErrMin= 1.63D-06
 ErrMax= 1.63D-06  0.00D+00 EMaxC= 1.00D-01 BMatC= 2.70D-09 BMatP= 5.35D-09
 IDIUse=1 WtCom= 1.00D+00 WtEn= 0.00D+00
 Coeff-Com:  0.482D-04-0.721D-04-0.287D-03-0.446D-03-0.111D-02 0.842D-03
 Coeff-Com:  0.112D-01 0.246D-02-0.234D-01-0.521D-01-0.463D-01 0.509D+00
 Coeff-Com:  0.600D+00
 Coeff:      0.482D-04-0.721D-04-0.287D-03-0.446D-03-0.111D-02 0.842D-03
 Coeff:      0.112D-01 0.246D-02-0.234D-01-0.521D-01-0.463D-01 0.509D+00
 Coeff:      0.600D+00
 Gap=     0.222 Goal=   None    Shift=    0.000
 Gap=     0.108 Goal=   None    Shift=    0.000
 RMSDP=5.08D-07 MaxDP=1.77D-05 DE=-2.89D-09 OVMax= 2.45D-05

 Cycle  14  Pass 1  IDiag  1:
 RMSU=  3.29D-07    CP:  6.53D-01  2.85D+00  8.44D-01  7.72D-01  9.25D-01
                    CP:  1.39D+00  1.83D+00  1.39D+00  1.73D+00  1.52D+00
                    CP:  1.18D+00  1.24D+00  7.46D-01
 E= -345.828971392095     Delta-E=       -0.000000001035 Rises=F Damp=F
 DIIS: error= 5.47D-07 at cycle  14 NSaved=  14.
 NSaved=14 IEnMin=14 EnMin= -345.828971392095     IErMin=14 ErrMin= 5.47D-07
 ErrMax= 5.47D-07  0.00D+00 EMaxC= 1.00D-01 BMatC= 1.79D-10 BMatP= 2.70D-09
 IDIUse=1 WtCom= 1.00D+00 WtEn= 0.00D+00
 Coeff-Com:  0.756D-06 0.928D-05-0.783D-04-0.144D-03-0.793D-03-0.231D-03
 Coeff-Com:  0.333D-02 0.323D-02 0.553D-02-0.152D-01-0.567D-01 0.284D-01
 Coeff-Com:  0.159D+00 0.874D+00
 Coeff:      0.756D-06 0.928D-05-0.783D-04-0.144D-03-0.793D-03-0.231D-03
 Coeff:      0.333D-02 0.323D-02 0.553D-02-0.152D-01-0.567D-01 0.284D-01
 Coeff:      0.159D+00 0.874D+00
 Gap=     0.222 Goal=   None    Shift=    0.000
 Gap=     0.108 Goal=   None    Shift=    0.000
 RMSDP=1.85D-07 MaxDP=6.82D-06 DE=-1.03D-09 OVMax= 9.32D-06

 Cycle  15  Pass 1  IDiag  1:
 RMSU=  1.15D-07    CP:  6.53D-01  2.85D+00  8.44D-01  7.72D-01  9.25D-01
                    CP:  1.39D+00  1.83D+00  1.39D+00  1.73D+00  1.52D+00
                    CP:  1.18D+00  1.29D+00  8.73D-01  1.10D+00
 E= -345.828971392188     Delta-E=       -0.000000000093 Rises=F Damp=F
 DIIS: error= 1.78D-07 at cycle  15 NSaved=  15.
 NSaved=15 IEnMin=15 EnMin= -345.828971392188     IErMin=15 ErrMin= 1.78D-07
 ErrMax= 1.78D-07  0.00D+00 EMaxC= 1.00D-01 BMatC= 4.84D-11 BMatP= 1.79D-10
 IDIUse=1 WtCom= 1.00D+00 WtEn= 0.00D+00
 Coeff-Com: -0.589D-05 0.141D-04-0.181D-05-0.549D-05-0.263D-03-0.203D-03
 Coeff-Com:  0.155D-03 0.944D-03 0.554D-02 0.836D-05-0.239D-01-0.483D-01
 Coeff-Com: -0.457D-02 0.419D+00 0.651D+00
 Coeff:     -0.589D-05 0.141D-04-0.181D-05-0.549D-05-0.263D-03-0.203D-03
 Coeff:      0.155D-03 0.944D-03 0.554D-02 0.836D-05-0.239D-01-0.483D-01
 Coeff:     -0.457D-02 0.419D+00 0.651D+00
 Gap=     0.222 Goal=   None    Shift=    0.000
 Gap=     0.108 Goal=   None    Shift=    0.000
 RMSDP=7.21D-08 MaxDP=3.36D-06 DE=-9.30D-11 OVMax= 4.08D-06

 Cycle  16  Pass 1  IDiag  1:
 RMSU=  4.59D-08    CP:  6.53D-01  2.85D+00  8.44D-01  7.72D-01  9.25D-01
                    CP:  1.39D+00  1.83D+00  1.39D+00  1.73D+00  1.53D+00
                    CP:  1.19D+00  1.29D+00  8.80D-01  1.20D+00  9.74D-01
 E= -345.828971392208     Delta-E=       -0.000000000019 Rises=F Damp=F
 DIIS: error= 9.93D-08 at cycle  16 NSaved=  16.
 NSaved=16 IEnMin=16 EnMin= -345.828971392208     IErMin=16 ErrMin= 9.93D-08
 ErrMax= 9.93D-08  0.00D+00 EMaxC= 1.00D-01 BMatC= 8.95D-12 BMatP= 4.84D-11
 IDIUse=1 WtCom= 1.00D+00 WtEn= 0.00D+00
 Coeff-Com: -0.167D-05 0.148D-05 0.161D-04 0.369D-04 0.937D-04-0.519D-05
 Coeff-Com: -0.627D-03-0.641D-03 0.532D-03 0.454D-02 0.482D-02-0.191D-01
 Coeff-Com: -0.423D-01-0.113D+00 0.203D+00 0.963D+00
 Coeff:     -0.167D-05 0.148D-05 0.161D-04 0.369D-04 0.937D-04-0.519D-05
 Coeff:     -0.627D-03-0.641D-03 0.532D-03 0.454D-02 0.482D-02-0.191D-01
 Coeff:     -0.423D-01-0.113D+00 0.203D+00 0.963D+00
 Gap=     0.222 Goal=   None    Shift=    0.000
 Gap=     0.108 Goal=   None    Shift=    0.000
 RMSDP=4.46D-08 MaxDP=1.63D-06 DE=-1.93D-11 OVMax= 2.80D-06

 Cycle  17  Pass 1  IDiag  1:
 RMSU=  2.16D-08    CP:  6.53D-01  2.85D+00  8.44D-01  7.72D-01  9.25D-01
                    CP:  1.39D+00  1.83D+00  1.39D+00  1.73D+00  1.53D+00
                    CP:  1.18D+00  1.30D+00  8.95D-01  1.26D+00  1.19D+00
                    CP:  1.22D+00
 E= -345.828971392228     Delta-E=       -0.000000000020 Rises=F Damp=F
 DIIS: error= 5.14D-08 at cycle  17 NSaved=  17.
 NSaved=17 IEnMin=17 EnMin= -345.828971392228     IErMin=17 ErrMin= 5.14D-08
 ErrMax= 5.14D-08  0.00D+00 EMaxC= 1.00D-01 BMatC= 9.64D-13 BMatP= 8.95D-12
 IDIUse=1 WtCom= 1.00D+00 WtEn= 0.00D+00
 Coeff-Com:  0.507D-06-0.165D-05 0.195D-05 0.898D-05 0.486D-04 0.216D-04
 Coeff-Com: -0.812D-04-0.332D-03-0.724D-03 0.117D-02 0.339D-02 0.334D-02
 Coeff-Com: -0.474D-02-0.791D-01-0.389D-01 0.165D+00 0.951D+00
 Coeff:      0.507D-06-0.165D-05 0.195D-05 0.898D-05 0.486D-04 0.216D-04
 Coeff:     -0.812D-04-0.332D-03-0.724D-03 0.117D-02 0.339D-02 0.334D-02
 Coeff:     -0.474D-02-0.791D-01-0.389D-01 0.165D+00 0.951D+00
 Gap=     0.222 Goal=   None    Shift=    0.000
 Gap=     0.108 Goal=   None    Shift=    0.000
 RMSDP=1.82D-08 MaxDP=5.44D-07 DE=-1.98D-11 OVMax= 1.51D-06

 Cycle  18  Pass 1  IDiag  1:
 RMSU=  8.91D-09    CP:  6.53D-01  2.85D+00  8.44D-01  7.72D-01  9.25D-01
                    CP:  1.39D+00  1.83D+00  1.39D+00  1.73D+00  1.53D+00
                    CP:  1.18D+00  1.30D+00  9.00D-01  1.27D+00  1.25D+00
                    CP:  1.40D+00  1.32D+00
 E= -345.828971392206     Delta-E=        0.000000000021 Rises=F Damp=F
 DIIS: error= 2.56D-08 at cycle  18 NSaved=  18.
 NSaved=18 IEnMin=17 EnMin= -345.828971392228     IErMin=18 ErrMin= 2.56D-08
 ErrMax= 2.56D-08  0.00D+00 EMaxC= 1.00D-01 BMatC= 1.72D-13 BMatP= 9.64D-13
 IDIUse=1 WtCom= 1.00D+00 WtEn= 0.00D+00
 Coeff-Com:  0.606D-07 0.232D-06-0.293D-05-0.741D-05-0.217D-04-0.105D-04
 Coeff-Com:  0.148D-03 0.963D-04 0.252D-04-0.587D-03-0.167D-02 0.232D-02
 Coeff-Com:  0.854D-02 0.278D-01-0.185D-01-0.180D+00-0.192D+00 0.135D+01
 Coeff:      0.606D-07 0.232D-06-0.293D-05-0.741D-05-0.217D-04-0.105D-04
 Coeff:      0.148D-03 0.963D-04 0.252D-04-0.587D-03-0.167D-02 0.232D-02
 Coeff:      0.854D-02 0.278D-01-0.185D-01-0.180D+00-0.192D+00 0.135D+01
 Gap=     0.222 Goal=   None    Shift=    0.000
 Gap=     0.108 Goal=   None    Shift=    0.000
 RMSDP=1.22D-08 MaxDP=3.56D-07 DE= 2.13D-11 OVMax= 1.11D-06

 Cycle  19  Pass 1  IDiag  1:
 RMSU=  3.35D-09    CP:  6.53D-01  2.85D+00  8.44D-01  7.72D-01  9.25D-01
                    CP:  1.39D+00  1.83D+00  1.39D+00  1.73D+00  1.53D+00
                    CP:  1.18D+00  1.30D+00  9.02D-01  1.27D+00  1.28D+00
                    CP:  1.48D+00  1.67D+00  1.69D+00
 E= -345.828971392201     Delta-E=        0.000000000005 Rises=F Damp=F
 DIIS: error= 1.03D-08 at cycle  19 NSaved=  19.
 NSaved=19 IEnMin=17 EnMin= -345.828971392228     IErMin=19 ErrMin= 1.03D-08
 ErrMax= 1.03D-08  0.00D+00 EMaxC= 1.00D-01 BMatC= 3.17D-14 BMatP= 1.72D-13
 IDIUse=1 WtCom= 1.00D+00 WtEn= 0.00D+00
 Coeff-Com: -0.157D-06 0.379D-06-0.626D-06-0.240D-05-0.890D-05-0.723D-05
 Coeff-Com:  0.358D-04 0.398D-04 0.129D-03-0.167D-03-0.854D-03-0.462D-03
 Coeff-Com:  0.220D-02 0.157D-01 0.602D-02-0.502D-01-0.191D+00 0.230D+00
 Coeff-Com:  0.989D+00
 Coeff:     -0.157D-06 0.379D-06-0.626D-06-0.240D-05-0.890D-05-0.723D-05
 Coeff:      0.358D-04 0.398D-04 0.129D-03-0.167D-03-0.854D-03-0.462D-03
 Coeff:      0.220D-02 0.157D-01 0.602D-02-0.502D-01-0.191D+00 0.230D+00
 Coeff:      0.989D+00
 Gap=     0.222 Goal=   None    Shift=    0.000
 Gap=     0.108 Goal=   None    Shift=    0.000
 RMSDP=4.50D-09 MaxDP=1.32D-07 DE= 5.12D-12 OVMax= 4.21D-07

 SCF Done:  E(UB3LYP) =  -345.828971392     A.U. after   19 cycles
            NFock= 19  Conv=0.45D-08     -V/T= 2.0064
 <Sx>= 0.0000 <Sy>= 0.0000 <Sz>= 1.0000 <S**2>= 2.0225 S= 1.0075
 <L.S>= 0.000000000000E+00
 KE= 3.436240743367D+02 PE=-1.459660211614D+03 EE= 4.367284943906D+02
 Annihilation of the first spin contaminant:
 S**2 before annihilation     2.0225,   after     2.0002
 Leave Link  502 at Sat Jun 27 00:27:13 2020, MaxMem=   524288000 cpu:            1240.9 elap:             177.3
 (Enter /home/ubuntu/g16/l601.exe)
 Copying SCF densities to generalized density rwf, IOpCl= 1 IROHF=0.

 **********************************************************************

            Population analysis using the SCF density.

 **********************************************************************

 Orbital symmetries:
 Alpha Orbitals:
       Occupied  (A) (A) (A) (A) (A) (A) (A) (A) (A) (A) (A) (A)
                 (A) (A) (A) (A) (A) (A) (A) (A) (A) (A) (A) (A)
                 (A) (A) (A) (A) (A)
       Virtual   (A) (A) (A) (A) (A) (A) (A) (A) (A) (A) (A) (A)
                 (A) (A) (A) (A) (A) (A) (A) (A) (A) (A) (A) (A)
                 (A) (A) (A) (A) (A) (A) (A) (A) (A) (A) (A) (A)
                 (A) (A) (A) (A) (A) (A) (A) (A) (A) (A) (A) (A)
                 (A) (A) (A) (A) (A) (A) (A) (A) (A) (A) (A) (A)
                 (A) (A) (A) (A) (A) (A) (A) (A) (A) (A) (A) (A)
                 (A) (A) (A) (A) (A) (A) (A) (A) (A) (A) (A) (A)
                 (A) (A) (A) (A) (A) (A) (A) (A) (A) (A) (A) (A)
                 (A) (A) (A) (A) (A) (A) (A) (A) (A) (A) (A) (A)
                 (A) (A) (A) (A) (A) (A) (A) (A) (A) (A) (A) (A)
                 (A) (A) (A) (A) (A) (A) (A) (A) (A) (A) (A) (A)
                 (A) (A) (A) (A) (A) (A) (A) (A) (A) (A) (A) (A)
                 (A) (A) (A) (A) (A) (A) (A) (A) (A) (A) (A) (A)
                 (A) (A) (A) (A) (A) (A) (A) (A) (A) (A) (A) (A)
                 (A) (A) (A) (A) (A) (A) (A) (A) (A) (A) (A) (A)
                 (A) (A) (A) (A) (A) (A) (A) (A) (A) (A) (A) (A)
                 (A) (A) (A) (A) (A) (A) (A) (A) (A) (A) (A) (A)
                 (A) (A) (A) (A) (A) (A) (A) (A) (A) (A) (A) (A)
                 (A) (A)
 Beta  Orbitals:
       Occupied  (A) (A) (A) (A) (A) (A) (A) (A) (A) (A) (A) (A)
                 (A) (A) (A) (A) (A) (A) (A) (A) (A) (A) (A) (A)
                 (A) (A) (A)
       Virtual   (A) (A) (A) (A) (A) (A) (A) (A) (A) (A) (A) (A)
                 (A) (A) (A) (A) (A) (A) (A) (A) (A) (A) (A) (A)
                 (A) (A) (A) (A) (A) (A) (A) (A) (A) (A) (A) (A)
                 (A) (A) (A) (A) (A) (A) (A) (A) (A) (A) (A) (A)
                 (A) (A) (A) (A) (A) (A) (A) (A) (A) (A) (A) (A)
                 (A) (A) (A) (A) (A) (A) (A) (A) (A) (A) (A) (A)
                 (A) (A) (A) (A) (A) (A) (A) (A) (A) (A) (A) (A)
                 (A) (A) (A) (A) (A) (A) (A) (A) (A) (A) (A) (A)
                 (A) (A) (A) (A) (A) (A) (A) (A) (A) (A) (A) (A)
                 (A) (A) (A) (A) (A) (A) (A) (A) (A) (A) (A) (A)
                 (A) (A) (A) (A) (A) (A) (A) (A) (A) (A) (A) (A)
                 (A) (A) (A) (A) (A) (A) (A) (A) (A) (A) (A) (A)
                 (A) (A) (A) (A) (A) (A) (A) (A) (A) (A) (A) (A)
                 (A) (A) (A) (A) (A) (A) (A) (A) (A) (A) (A) (A)
                 (A) (A) (A) (A) (A) (A) (A) (A) (A) (A) (A) (A)
                 (A) (A) (A) (A) (A) (A) (A) (A) (A) (A) (A) (A)
                 (A) (A) (A) (A) (A) (A) (A) (A) (A) (A) (A) (A)
                 (A) (A) (A) (A) (A) (A) (A) (A) (A) (A) (A) (A)
                 (A) (A) (A) (A)
 The electronic state is 3-A.
     Natural Orbital Coefficients:
                           1         2         3         4         5
     Eigenvalues --     2.00000   2.00000   2.00000   2.00000   2.00000
   1 1   C  1S         -0.00023  -0.00711   0.13581  -0.06526  -0.43962
   2        2S         -0.00010  -0.00139   0.00260  -0.00146  -0.01467
   3        3S         -0.03038   0.02702  -0.00841  -0.02468   0.06789
   4        4S         -0.00778   0.01466   0.00236   0.00354   0.06227
   5        5PX        -0.00025  -0.00014   0.00339  -0.00012  -0.00087
   6        5PY        -0.00016  -0.00019  -0.00047  -0.00100  -0.00207
   7        5PZ        -0.00000  -0.00000   0.00001  -0.00001  -0.00003
   8        6PX         0.00516   0.01455  -0.04935  -0.04003   0.00411
   9        6PY        -0.02175   0.02886   0.00832  -0.00688   0.01958
  10        6PZ        -0.00003  -0.00001  -0.00011  -0.00005  -0.00016
  11        7PX        -0.03355  -0.00916   0.00502  -0.01987  -0.00850
  12        7PY        -0.00805  -0.00766   0.00662  -0.00456   0.01234
  13        7PZ         0.00000  -0.00002  -0.00001  -0.00004   0.00007
  14        8D 0        0.00011  -0.00004   0.00046   0.00030   0.00065
  15        8D+1       -0.00000   0.00000  -0.00000   0.00000  -0.00001
  16        8D-1        0.00000   0.00000   0.00000   0.00000  -0.00000
  17        8D+2       -0.00032   0.00016  -0.00115  -0.00041  -0.00035
  18        8D-2       -0.00015   0.00006   0.00051  -0.00017  -0.00070
  19        9D 0       -0.00141  -0.00031  -0.00110  -0.00114  -0.00465
  20        9D+1        0.00001  -0.00002   0.00003  -0.00000   0.00002
  21        9D-1       -0.00002  -0.00002  -0.00005  -0.00003  -0.00010
  22        9D+2        0.01457  -0.01081   0.00295  -0.00011   0.00393
  23        9D-2        0.00519  -0.00193  -0.01783  -0.01193   0.00474
  24 2   C  1S          0.00162   0.03618   0.98873  -0.00359   0.07008
  25        2S         -0.00017   0.00063   0.03533   0.00120   0.00392
  26        3S         -0.00277   0.02075  -0.12966  -0.04153  -0.00043
  27        4S          0.00428   0.00315  -0.09149  -0.02117  -0.04857
  28        5PX         0.00001   0.00035  -0.00121  -0.00001   0.00129
  29        5PY         0.00002  -0.00013   0.00153  -0.00018  -0.00051
  30        5PZ        -0.00000   0.00000  -0.00001  -0.00000  -0.00001
  31        6PX         0.00746  -0.01411  -0.03613  -0.01428  -0.01912
  32        6PY         0.00499  -0.00705  -0.03108  -0.01083   0.01496
  33        6PZ         0.00002  -0.00005  -0.00003  -0.00004  -0.00004
  34        7PX        -0.02070  -0.01121   0.00180  -0.01087  -0.01007
  35        7PY         0.02275   0.01569  -0.02320   0.00716  -0.00498
  36        7PZ        -0.00011  -0.00006   0.00005  -0.00005  -0.00012
  37        8D 0       -0.00010  -0.00010  -0.00065  -0.00003  -0.00049
  38        8D+1        0.00000   0.00000   0.00000   0.00000   0.00000
  39        8D-1        0.00000  -0.00000   0.00000   0.00000  -0.00000
  40        8D+2        0.00021   0.00014  -0.00013   0.00001   0.00036
  41        8D-2       -0.00005  -0.00016   0.00071  -0.00018  -0.00060
  42        9D 0        0.00027   0.00005   0.00811   0.00057   0.00175
  43        9D+1        0.00002   0.00003   0.00001  -0.00002   0.00001
  44        9D-1        0.00003  -0.00004   0.00000   0.00000   0.00001
  45        9D+2        0.00702  -0.00044   0.00175  -0.00136  -0.00597
  46        9D-2        0.00491  -0.01540  -0.01106  -0.00007  -0.00123
  47 3   C  1S          0.00044   0.00397   0.01669  -0.00131   0.00319
  48        2S         -0.00028  -0.00089  -0.00082   0.00115   0.00034
  49        3S          0.01768   0.02208   0.02571  -0.02233   0.00624
  50        4S         -0.00757   0.02725   0.01808   0.01745  -0.00337
  51        5PX         0.00006  -0.00055  -0.00040   0.00039   0.00007
  52        5PY        -0.00001  -0.00024   0.00093   0.00024  -0.00008
  53        5PZ         0.00000  -0.00000  -0.00000   0.00000   0.00001
  54        6PX         0.00441   0.03531   0.02118  -0.01038   0.01111
  55        6PY        -0.00088   0.01865  -0.04220  -0.02514   0.02403
  56        6PZ         0.00001   0.00014   0.00011  -0.00001  -0.00002
  57        7PX         0.00724   0.01418  -0.00196   0.00606   0.00193
  58        7PY         0.03143   0.01926  -0.03640   0.00769  -0.00655
  59        7PZ        -0.00003   0.00002   0.00007   0.00001   0.00015
  60        8D 0       -0.00002   0.00045   0.00042   0.00026   0.00019
  61        8D+1       -0.00000   0.00000   0.00000   0.00000   0.00000
  62        8D-1        0.00000  -0.00000   0.00001   0.00000   0.00000
  63        8D+2       -0.00006   0.00034   0.00101   0.00024   0.00023
  64        8D-2        0.00007  -0.00101   0.00046   0.00001  -0.00007
  65        9D 0       -0.00014  -0.00070  -0.00040  -0.00046   0.00058
  66        9D+1       -0.00000   0.00007   0.00004  -0.00000   0.00001
  67        9D-1       -0.00001   0.00002  -0.00006  -0.00004   0.00002
  68        9D+2        0.00091   0.01310   0.00718  -0.00313   0.00560
  69        9D-2        0.00079  -0.00103  -0.01299  -0.00685   0.00526
  70 4   C  1S          0.01753   0.99671  -0.03447   0.03936  -0.00643
  71        2S          0.00067   0.03747  -0.00205   0.00648  -0.00046
  72        3S          0.00641  -0.13026   0.03487  -0.02671   0.02401
  73        4S          0.03120  -0.12601   0.00726  -0.07452   0.02119
  74        5PX        -0.00003  -0.00113   0.00062   0.00356  -0.00031
  75        5PY        -0.00010  -0.00054  -0.00016   0.00057   0.00007
  76        5PZ         0.00000  -0.00000   0.00000   0.00002   0.00000
  77        6PX         0.00918  -0.02875  -0.01023  -0.05255   0.03574
  78        6PY         0.00538   0.04017   0.00709   0.00165   0.01255
  79        6PZ         0.00007  -0.00017  -0.00001  -0.00028   0.00015
  80        7PX         0.03163  -0.00511  -0.02893  -0.00419  -0.00720
  81        7PY         0.00519   0.01877  -0.01438   0.01899  -0.01175
  82        7PZ         0.00017  -0.00002  -0.00017  -0.00003  -0.00024
  83        8D 0       -0.00001  -0.00079  -0.00003  -0.00075  -0.00008
  84        8D+1        0.00000   0.00000   0.00000   0.00001   0.00001
  85        8D-1       -0.00000  -0.00000   0.00000  -0.00000   0.00000
  86        8D+2        0.00004  -0.00047   0.00027   0.00131   0.00008
  87        8D-2       -0.00005  -0.00030  -0.00005  -0.00025   0.00036
  88        9D 0        0.00045   0.00869  -0.00050   0.00336  -0.00056
  89        9D+1        0.00001  -0.00003   0.00005  -0.00011   0.00001
  90        9D-1       -0.00003   0.00008   0.00002   0.00008  -0.00002
  91        9D+2        0.00387   0.00692   0.01168  -0.01018   0.01048
  92        9D-2       -0.00222   0.00792   0.00906   0.01360  -0.00506
  93 5   C  1S         -0.00143   0.04107  -0.01857  -0.98790   0.09653
  94        2S         -0.00016  -0.00040  -0.00184  -0.03183   0.00349
  95        3S          0.01004   0.01188   0.02988   0.14556  -0.00678
  96        4S         -0.02348   0.05055   0.01206   0.12170  -0.04659
  97        5PX         0.00007   0.00228  -0.00041   0.00066   0.00001
  98        5PY         0.00000  -0.00048   0.00007   0.00510   0.00155
  99        5PZ        -0.00000   0.00001  -0.00000   0.00002  -0.00003
 100        6PX         0.01071  -0.05404   0.00299  -0.04876   0.03390
 101        6PY        -0.01722   0.01470  -0.03640  -0.03340  -0.03598
 102        6PZ         0.00002  -0.00019  -0.00007  -0.00027   0.00011
 103        7PX         0.03884  -0.02348  -0.01445  -0.01560   0.00178
 104        7PY        -0.02010  -0.00199   0.02246  -0.02417   0.02061
 105        7PZ         0.00016  -0.00015  -0.00000  -0.00013   0.00031
 106        8D 0        0.00016   0.00047  -0.00011   0.00090   0.00027
 107        8D+1        0.00000  -0.00001   0.00000  -0.00001   0.00001
 108        8D-1       -0.00000   0.00001  -0.00000  -0.00001   0.00000
 109        8D+2       -0.00008  -0.00102   0.00008   0.00025   0.00043
 110        8D-2        0.00006   0.00059  -0.00023  -0.00024   0.00094
 111        9D 0       -0.00022  -0.00234  -0.00051  -0.01000   0.00239
 112        9D+1        0.00003   0.00012  -0.00001   0.00004  -0.00009
 113        9D-1        0.00005  -0.00006   0.00009   0.00005   0.00010
 114        9D+2       -0.00443   0.01809  -0.00755  -0.00131  -0.01466
 115        9D-2       -0.00121   0.00761   0.00839  -0.00061   0.00441
 116 6   C  1S          0.00094  -0.00845  -0.03076   0.14006   0.38832
 117        2S         -0.00077  -0.00115  -0.00150   0.00499   0.01017
 118        3S         -0.01473   0.01415   0.00977  -0.01312  -0.06716
 119        4S          0.01617   0.01460   0.03641  -0.04622   0.05361
 120        5PX        -0.00035   0.00022   0.00014   0.00065  -0.00416
 121        5PY         0.00018   0.00001  -0.00011   0.00085   0.00017
 122        5PZ        -0.00000   0.00000   0.00000  -0.00001  -0.00005
 123        6PX        -0.01735   0.01919   0.00174   0.00649   0.03978
 124        6PY        -0.01149   0.03406  -0.04529  -0.05761  -0.01331
 125        6PZ         0.00001   0.00003   0.00004  -0.00000   0.00002
 126        7PX        -0.00576  -0.00021  -0.01203   0.00358   0.01885
 127        7PY        -0.03216   0.00181   0.00696  -0.02922   0.01549
 128        7PZ        -0.00012   0.00004   0.00003   0.00000  -0.00012
 129        8D 0       -0.00012  -0.00006   0.00004  -0.00101  -0.00046
 130        8D+1        0.00001   0.00000   0.00000   0.00000   0.00001
 131        8D-1       -0.00000   0.00000  -0.00000   0.00001  -0.00000
 132        8D+2       -0.00058  -0.00001  -0.00025  -0.00119  -0.00082
 133        8D-2        0.00007   0.00034  -0.00026  -0.00101   0.00113
 134        9D 0       -0.00048  -0.00042  -0.00108   0.00222   0.00200
 135        9D+1       -0.00004   0.00001   0.00001   0.00001  -0.00010
 136        9D-1       -0.00002  -0.00003   0.00001  -0.00001  -0.00005
 137        9D+2        0.01445  -0.00912   0.00300  -0.00415   0.01708
 138        9D-2        0.01028  -0.00849   0.01362   0.02285  -0.00458
 139 7   H  1S          0.00006  -0.00011  -0.00007   0.00097   0.00293
 140        2S          0.00701  -0.00123   0.01472   0.00020   0.00554
 141        3S          0.00171  -0.00062   0.00217  -0.00201   0.00661
 142        4PX        -0.00017  -0.00007   0.00038  -0.00001  -0.00039
 143        4PY        -0.00029   0.00006  -0.00004   0.00034   0.00055
 144        4PZ        -0.00000   0.00000  -0.00000  -0.00000  -0.00000
 145        5PX        -0.00178   0.00010  -0.00485  -0.00076   0.00105
 146        5PY         0.00045   0.00095   0.00452   0.00101   0.00097
 147        5PZ        -0.00000  -0.00001  -0.00001  -0.00001  -0.00004
 148 8   H  1S          0.00011  -0.00036  -0.00230   0.00032   0.00033
 149        2S         -0.00112   0.00430   0.02042  -0.00610   0.00114
 150        3S         -0.00040   0.00421  -0.00574  -0.00194  -0.00522
 151        4PX         0.00010  -0.00018  -0.00135   0.00013   0.00004
 152        4PY        -0.00010  -0.00037  -0.00135   0.00017  -0.00015
 153        4PZ         0.00000   0.00000  -0.00000   0.00000   0.00000
 154        5PX         0.00154   0.00015   0.00474  -0.00127  -0.00098
 155        5PY        -0.00167  -0.00106   0.00326  -0.00103   0.00058
 156        5PZ         0.00001   0.00001   0.00004  -0.00001   0.00001
 157 9   H  1S          0.00005  -0.00126  -0.00043   0.00175   0.00008
 158        2S         -0.00247   0.02094   0.00404  -0.00934   0.00247
 159        3S          0.00304  -0.00757   0.00461  -0.00817   0.00293
 160        4PX        -0.00001  -0.00049   0.00009   0.00037  -0.00014
 161        4PY         0.00010   0.00168   0.00032  -0.00018   0.00004
 162        4PZ         0.00000  -0.00000   0.00000   0.00000  -0.00000
 163        5PX         0.00029   0.00171   0.00066  -0.00452   0.00116
 164        5PY         0.00127  -0.00517   0.00096   0.00216   0.00042
 165        5PZ        -0.00000  -0.00001   0.00001  -0.00003   0.00000
 166 10  H  1S          0.00008   0.00009  -0.00024   0.00776   0.00083
 167        2S          0.00429   0.01243   0.00053   0.00787   0.00214
 168        3S         -0.00456   0.00581  -0.00282   0.01108  -0.00526
 169        4PX        -0.00008   0.00022  -0.00011  -0.00154   0.00020
 170        4PY         0.00009  -0.00011   0.00001  -0.00145   0.00011
 171        4PZ         0.00000   0.00000  -0.00000  -0.00002  -0.00000
 172        5PX        -0.00146  -0.00638   0.00020   0.00176   0.00004
 173        5PY        -0.00101  -0.00108  -0.00181  -0.00302  -0.00186
 174        5PZ        -0.00007  -0.00002  -0.00002  -0.00001  -0.00005
 175 11  O  1S          0.01652  -0.00047   0.00328   0.01456   0.80060
 176        2S          0.00082   0.00016   0.00024  -0.00002   0.01145
 177        3S          0.00015  -0.00214  -0.00272   0.00216  -0.04240
 178        4S         -0.00302  -0.00657  -0.00580   0.00440  -0.03581
 179        5PX        -0.00004  -0.00009  -0.00024  -0.00023   0.00124
 180        5PY        -0.00005   0.00009   0.00001  -0.00023  -0.00048
 181        5PZ         0.00000   0.00000   0.00000   0.00001   0.00005
 182        6PX        -0.00647   0.00029   0.00070   0.00263   0.00330
 183        6PY        -0.00372  -0.00060  -0.00026   0.00025  -0.00714
 184        6PZ         0.00003  -0.00002  -0.00000   0.00001   0.00004
 185        7PX        -0.00319   0.00058   0.00178  -0.00180   0.01661
 186        7PY        -0.00290  -0.00194  -0.00101   0.00016  -0.00479
 187        7PZ         0.00004  -0.00002  -0.00001   0.00001  -0.00004
 188        8D 0       -0.00000   0.00005   0.00007  -0.00002   0.00053
 189        8D+1        0.00000   0.00000  -0.00000   0.00000   0.00001
 190        8D-1        0.00000  -0.00000  -0.00000   0.00000   0.00000
 191        8D+2       -0.00005  -0.00008  -0.00002  -0.00007  -0.00074
 192        8D-2       -0.00013  -0.00003  -0.00006  -0.00009   0.00007
 193        9D 0        0.00164  -0.00027  -0.00037   0.00120   0.00165
 194        9D+1        0.00001   0.00000   0.00001   0.00002   0.00007
 195        9D-1        0.00001   0.00000   0.00000  -0.00001  -0.00001
 196        9D+2       -0.00016   0.00060  -0.00006  -0.00208  -0.00274
 197        9D-2       -0.00309   0.00024  -0.00006   0.00025  -0.00028
 198 12  C  1S          0.99802  -0.01717  -0.00078  -0.00038  -0.00270
 199        2S          0.03382  -0.00139  -0.00069  -0.00432  -0.02431
 200        3S         -0.05912   0.00052   0.00005   0.00274  -0.00475
 201        4S         -0.02643   0.00814   0.00895   0.00494  -0.02144
 202        5PX        -0.00231  -0.00071  -0.00056  -0.00395  -0.02154
 203        5PY        -0.00032   0.00072   0.00060   0.00254   0.01776
 204        5PZ         0.00003   0.00001   0.00001   0.00008   0.00032
 205        6PX        -0.00389  -0.00076   0.00123   0.00497  -0.00404
 206        6PY        -0.00881  -0.00068  -0.00037  -0.00018  -0.01217
 207        6PZ         0.00011   0.00010  -0.00003  -0.00001  -0.00012
 208        7PX         0.00531  -0.00406  -0.00344  -0.00068   0.00955
 209        7PY        -0.00351   0.00141  -0.00073   0.00126  -0.00132
 210        7PZ        -0.00011   0.00008  -0.00003  -0.00002  -0.00024
 211        8D 0        0.00010   0.00004   0.00009  -0.00006   0.00076
 212        8D+1        0.00001   0.00000   0.00000  -0.00000   0.00007
 213        8D-1       -0.00001   0.00000  -0.00000  -0.00000  -0.00009
 214        8D+2       -0.00020   0.00012  -0.00004  -0.00015  -0.00029
 215        8D-2        0.00022   0.00014   0.00004  -0.00018   0.00127
 216        9D 0       -0.00170   0.00009  -0.00035   0.00037  -0.00787
 217        9D+1       -0.00009  -0.00001   0.00001  -0.00003  -0.00041
 218        9D-1        0.00009   0.00001   0.00003   0.00011   0.00044
 219        9D+2       -0.00002   0.00036  -0.00056  -0.00309   0.00012
 220        9D-2        0.00136  -0.00033  -0.00009   0.00080  -0.00421
 221 13  H  1S         -0.00274  -0.00103  -0.00095  -0.00618  -0.03487
 222        2S          0.01440  -0.00158  -0.00252  -0.00577  -0.03897
 223        3S         -0.00241   0.00244   0.00021  -0.00018  -0.00545
 224        4PX         0.00149  -0.00000   0.00007   0.00054   0.00199
 225        4PY        -0.00090  -0.00001  -0.00001  -0.00031  -0.00109
 226        4PZ        -0.00005  -0.00000  -0.00000  -0.00002  -0.00010
 227        5PX        -0.00409   0.00034   0.00061   0.00218   0.00826
 228        5PY         0.00266  -0.00026   0.00001  -0.00022  -0.00312
 229        5PZ         0.00015  -0.00002  -0.00003   0.00002  -0.00037
 230 14  H  1S         -0.00144  -0.00001  -0.00001  -0.00063  -0.00251
 231        2S          0.02411  -0.00013   0.00018  -0.00318   0.01905
 232        3S          0.00333  -0.00052   0.00170  -0.00053   0.00050
 233        4PX         0.00003   0.00004  -0.00001  -0.00040  -0.00037
 234        4PY         0.00105   0.00001   0.00004   0.00015   0.00111
 235        4PZ         0.00148   0.00001   0.00001   0.00007   0.00092
 236        5PX        -0.00018   0.00016  -0.00024  -0.00029   0.00079
 237        5PY        -0.00440   0.00007  -0.00025  -0.00011  -0.00316
 238        5PZ        -0.00624  -0.00039   0.00024   0.00153  -0.00217
 239 15  H  1S         -0.00141   0.00002   0.00003  -0.00047  -0.00161
 240        2S          0.02479   0.00028   0.00015  -0.00313   0.02021
 241        3S          0.00340  -0.00053   0.00164  -0.00059   0.00041
 242        4PX        -0.00003   0.00005  -0.00001  -0.00042  -0.00040
 243        4PY         0.00113   0.00000   0.00005   0.00015   0.00112
 244        4PZ        -0.00143   0.00000  -0.00000  -0.00006  -0.00083
 245        5PX         0.00004   0.00014  -0.00022  -0.00040   0.00081
 246        5PY        -0.00485   0.00001  -0.00025  -0.00004  -0.00348
 247        5PZ         0.00626   0.00053  -0.00025  -0.00153   0.00220
                           6         7         8         9        10
     Eigenvalues --     2.00000   2.00000   2.00000   2.00000   2.00000
   1 1   C  1S          0.54002   0.70316  -0.01186  -0.00279   0.00135
   2        2S          0.01800   0.02156   0.00097  -0.00337  -0.00254
   3        3S         -0.07536  -0.09916   0.16736   0.03439  -0.06858
   4        4S         -0.09485  -0.09745  -0.16737  -0.00441  -0.11717
   5        5PX         0.00071  -0.00069  -0.00327  -0.00122   0.00483
   6        5PY         0.00466   0.00008  -0.00774   0.00000   0.00820
   7        5PZ         0.00001  -0.00001   0.00031   0.00003   0.00048
   8        6PX         0.01684   0.06804   0.05214  -0.01017   0.13318
   9        6PY        -0.02706  -0.01142   0.14994   0.01799  -0.02103
  10        6PZ        -0.00001   0.00012   0.00199   0.00010  -0.00137
  11        7PX        -0.01372  -0.00950   0.07599   0.00252  -0.02001
  12        7PY        -0.02574  -0.02060  -0.04135  -0.00454  -0.04831
  13        7PZ         0.00002   0.00000  -0.00027  -0.00005  -0.00016
  14        8D 0       -0.00055  -0.00025  -0.00030  -0.00022  -0.00011
  15        8D+1        0.00000  -0.00000   0.00004   0.00001   0.00006
  16        8D-1        0.00000  -0.00000   0.00000  -0.00000   0.00007
  17        8D+2       -0.00030  -0.00010   0.00258   0.00060  -0.00041
  18        8D-2        0.00046  -0.00123   0.00055   0.00041   0.00041
  19        9D 0        0.00782   0.00420   0.00148   0.00098  -0.00017
  20        9D+1       -0.00003  -0.00002   0.00035   0.00004  -0.00051
  21        9D-1       -0.00002   0.00004   0.00113   0.00008  -0.00118
  22        9D+2       -0.00367  -0.00105  -0.07088  -0.00665   0.00965
  23        9D-2        0.00095   0.01703   0.00961  -0.00924   0.05798
  24 2   C  1S         -0.09454  -0.07230   0.00534  -0.01446  -0.00129
  25        2S         -0.00470  -0.00632   0.00375  -0.00477   0.00138
  26        3S          0.01887   0.04716   0.04907   0.02478   0.06599
  27        4S          0.03379   0.06284   0.13620   0.01405   0.00286
  28        5PX        -0.00200  -0.00231   0.00418   0.00185  -0.00744
  29        5PY         0.00083   0.00085  -0.00142  -0.00464  -0.00146
  30        5PZ        -0.00000  -0.00001   0.00010   0.00002  -0.00021
  31        6PX         0.03224   0.05550   0.00098  -0.02790   0.10552
  32        6PY        -0.01048  -0.02642  -0.06037   0.02436  -0.01157
  33        6PZ         0.00016   0.00016  -0.00025  -0.00015   0.00031
  34        7PX         0.00035   0.00221   0.10561   0.01080  -0.07277
  35        7PY         0.01479   0.01926  -0.02850   0.00469   0.03761
  36        7PZ        -0.00004  -0.00003   0.00111   0.00010  -0.00036
  37        8D 0        0.00051   0.00041   0.00036   0.00076  -0.00036
  38        8D+1       -0.00000  -0.00001   0.00000  -0.00000   0.00004
  39        8D-1        0.00000   0.00000  -0.00000   0.00001  -0.00001
  40        8D+2       -0.00054  -0.00081  -0.00058   0.00137   0.00022
  41        8D-2        0.00046   0.00036  -0.00038   0.00115   0.00065
  42        9D 0       -0.00260  -0.00196   0.00244  -0.00299   0.00121
  43        9D+1        0.00003   0.00010  -0.00025   0.00001   0.00035
  44        9D-1        0.00002  -0.00001  -0.00051  -0.00012   0.00049
  45        9D+2        0.00805   0.02337  -0.01191  -0.01147   0.04393
  46        9D-2        0.00153  -0.00198  -0.02200  -0.01648   0.02074
  47 3   C  1S         -0.00404   0.00508  -0.09219   0.99716  -0.00295
  48        2S          0.00056  -0.00171  -0.00340   0.02883   0.00160
  49        3S         -0.01281   0.05208  -0.01426  -0.13621   0.04970
  50        4S         -0.01133  -0.01548  -0.04742  -0.07463  -0.02539
  51        5PX         0.00014  -0.00031  -0.00093  -0.00084   0.00122
  52        5PY         0.00009   0.00010  -0.00051  -0.00057   0.00164
  53        5PZ         0.00000   0.00000  -0.00009  -0.00001  -0.00001
  54        6PX        -0.01693   0.01038  -0.00414  -0.01298  -0.01411
  55        6PY        -0.02309  -0.02075  -0.02139   0.00384  -0.04362
  56        6PZ        -0.00004   0.00008   0.00047  -0.00006  -0.00065
  57        7PX         0.00202  -0.00110  -0.03526  -0.01018   0.01639
  58        7PY         0.00983   0.02361  -0.09048  -0.01701   0.07203
  59        7PZ         0.00002  -0.00003  -0.00113  -0.00012   0.00043
  60        8D 0       -0.00002  -0.00030   0.00011  -0.00042  -0.00024
  61        8D+1       -0.00000   0.00000  -0.00001   0.00000   0.00002
  62        8D-1       -0.00000  -0.00000  -0.00002  -0.00000   0.00005
  63        8D+2       -0.00002  -0.00025  -0.00033  -0.00037  -0.00076
  64        8D-2       -0.00001   0.00013  -0.00039   0.00012   0.00086
  65        9D 0        0.00073   0.00026  -0.00218   0.01091  -0.00167
  66        9D+1       -0.00003   0.00001   0.00014   0.00001  -0.00008
  67        9D-1       -0.00001  -0.00008  -0.00005   0.00001  -0.00036
  68        9D+2       -0.00662  -0.00046  -0.00279   0.01823  -0.00986
  69        9D-2       -0.00474  -0.00562  -0.00886  -0.01087   0.00078
  70 4   C  1S          0.00670   0.01109   0.00300   0.00120  -0.00525
  71        2S          0.00110  -0.00158   0.00195  -0.00924   0.01153
  72        3S          0.00707   0.04932  -0.09844   0.00420  -0.09315
  73        4S         -0.01971   0.05595  -0.04567  -0.01061   0.24704
  74        5PX         0.00037   0.00021   0.00284   0.00539  -0.00624
  75        5PY        -0.00044  -0.00022   0.00311  -0.00109   0.00687
  76        5PZ        -0.00001   0.00001   0.00001   0.00003   0.00047
  77        6PX        -0.02098   0.02459  -0.07090  -0.04595  -0.07497
  78        6PY        -0.02028  -0.00676  -0.03898  -0.01614  -0.00022
  79        6PZ        -0.00003   0.00004  -0.00025  -0.00015  -0.00179
  80        7PX         0.00322   0.03338  -0.07597  -0.02827   0.08985
  81        7PY         0.00587   0.00445  -0.02727  -0.01318   0.01158
  82        7PZ        -0.00004   0.00015   0.00163   0.00004  -0.00065
  83        8D 0       -0.00002  -0.00008  -0.00004   0.00082   0.00000
  84        8D+1       -0.00000   0.00000  -0.00001  -0.00001   0.00004
  85        8D-1       -0.00000   0.00000   0.00000  -0.00001  -0.00002
  86        8D+2        0.00010   0.00003   0.00069   0.00001  -0.00067
  87        8D-2       -0.00018   0.00018   0.00051  -0.00173  -0.00031
  88        9D 0       -0.00040   0.00039   0.00222  -0.00280   0.00087
  89        9D+1        0.00000  -0.00006   0.00033   0.00008  -0.00158
  90        9D-1        0.00001  -0.00007  -0.00004   0.00005  -0.00020
  91        9D+2       -0.00827   0.00593  -0.01914   0.00086  -0.01310
  92        9D-2        0.00473  -0.00883  -0.00378   0.01442  -0.00296
  93 5   C  1S         -0.10831   0.05511  -0.00354  -0.00139   0.00061
  94        2S         -0.00300   0.00059  -0.00402  -0.00490  -0.00431
  95        3S          0.01448   0.02983  -0.14277   0.01002  -0.03507
  96        4S          0.01070  -0.03672  -0.15942   0.01064  -0.26201
  97        5PX        -0.00126   0.00040  -0.00232  -0.00170   0.00008
  98        5PY        -0.00405   0.00316   0.01520   0.00085  -0.00013
  99        5PZ        -0.00003   0.00000   0.00054   0.00005   0.00049
 100        6PX        -0.00101   0.04860  -0.09232  -0.02653  -0.08785
 101        6PY         0.02235  -0.05804   0.11627   0.01517   0.02936
 102        6PZ        -0.00003   0.00008  -0.00095  -0.00018   0.00106
 103        7PX         0.00173   0.04065  -0.16868  -0.03816   0.21930
 104        7PY        -0.00154  -0.02657   0.10281   0.02347  -0.05118
 105        7PZ         0.00008   0.00014  -0.00281  -0.00035   0.00240
 106        8D 0       -0.00012   0.00009   0.00031  -0.00006   0.00121
 107        8D+1       -0.00001   0.00001  -0.00002  -0.00000  -0.00001
 108        8D-1        0.00000  -0.00000  -0.00001  -0.00000  -0.00013
 109        8D+2       -0.00061   0.00101  -0.00053  -0.00022   0.00187
 110        8D-2       -0.00035   0.00036  -0.00005  -0.00026   0.00103
 111        9D 0        0.00131  -0.00174  -0.01051  -0.00016  -0.00858
 112        9D+1        0.00010  -0.00022  -0.00004   0.00007  -0.00129
 113        9D-1       -0.00004   0.00008  -0.00037  -0.00000   0.00137
 114        9D+2        0.00580  -0.02050   0.03699   0.01142   0.04703
 115        9D-2       -0.00530  -0.01477  -0.04167   0.00159  -0.04220
 116 6   C  1S         -0.57519   0.70491   0.04902  -0.00136   0.00262
 117        2S         -0.02155   0.02347   0.00497  -0.00242  -0.00804
 118        3S          0.06530  -0.12461   0.01367   0.02871  -0.05787
 119        4S          0.08703   0.02708   0.27671   0.04497   0.16605
 120        5PX        -0.00525   0.00241   0.02468   0.00359  -0.01527
 121        5PY         0.00367   0.00033  -0.01461  -0.00237  -0.00602
 122        5PZ        -0.00001  -0.00001   0.00067   0.00006   0.00127
 123        6PX        -0.01721   0.01432   0.10957   0.01087  -0.02700
 124        6PY        -0.00326  -0.04197   0.13317   0.01186   0.06444
 125        6PZ        -0.00002  -0.00008  -0.00057  -0.00000   0.00331
 126        7PX        -0.02157  -0.02377   0.07131   0.00934  -0.22355
 127        7PY        -0.02174  -0.03311   0.13662   0.01912  -0.06609
 128        7PZ        -0.00007  -0.00006   0.00103   0.00014  -0.00088
 129        8D 0        0.00097   0.00026   0.00055   0.00011   0.00003
 130        8D+1        0.00000   0.00000  -0.00018  -0.00002   0.00013
 131        8D-1       -0.00000  -0.00000   0.00003   0.00000  -0.00004
 132        8D+2       -0.00094   0.00043   0.00349   0.00068  -0.00213
 133        8D-2        0.00002  -0.00106   0.00030  -0.00010  -0.00164
 134        9D 0       -0.00859   0.00595   0.00602  -0.00064   0.00075
 135        9D+1       -0.00007   0.00003   0.00122   0.00010  -0.00137
 136        9D-1       -0.00003  -0.00002   0.00119   0.00011  -0.00052
 137        9D+2        0.00723   0.03243  -0.07474  -0.00433   0.03465
 138        9D-2       -0.00817  -0.00266  -0.09021  -0.00846  -0.03191
 139 7   H  1S         -0.00495  -0.00372   0.00376  -0.00230  -0.00590
 140        2S         -0.00662   0.02353   0.00792  -0.00794   0.03594
 141        3S         -0.00772  -0.00625  -0.03111  -0.00139  -0.00786
 142        4PX         0.00057   0.00025  -0.00008   0.00001   0.00072
 143        4PY        -0.00094  -0.00157   0.00103  -0.00003  -0.00062
 144        4PZ        -0.00000  -0.00000   0.00002   0.00000   0.00002
 145        5PX         0.00080   0.00059   0.00734   0.00010   0.01225
 146        5PY        -0.00193   0.00762   0.01073  -0.00131   0.01066
 147        5PZ        -0.00001   0.00002   0.00033   0.00003  -0.00035
 148 8   H  1S          0.00049  -0.00064  -0.00170  -0.00113   0.00740
 149        2S          0.00842   0.00837  -0.01861   0.02049   0.02320
 150        3S          0.00264   0.00643   0.02026   0.00238  -0.00934
 151        4PX        -0.00005  -0.00028  -0.00022  -0.00008   0.00031
 152        4PY         0.00026  -0.00004   0.00015  -0.00075   0.00005
 153        4PZ        -0.00000  -0.00000  -0.00001   0.00000   0.00001
 154        5PX         0.00340   0.00484  -0.01176   0.00188   0.01435
 155        5PY         0.00087  -0.00152   0.00018   0.00532  -0.00326
 156        5PZ         0.00001   0.00002  -0.00026  -0.00001   0.00019
 157 9   H  1S          0.00054  -0.00108   0.00070  -0.00776   0.01404
 158        2S          0.00583  -0.00245   0.00717   0.01495  -0.03064
 159        3S         -0.00271   0.00398  -0.00728  -0.00174   0.01417
 160        4PX         0.00006  -0.00003   0.00035   0.00018   0.00031
 161        4PY        -0.00004   0.00030  -0.00041   0.00108  -0.00115
 162        4PZ        -0.00000   0.00000   0.00001   0.00000   0.00003
 163        5PX        -0.00055   0.00117   0.00420   0.00011   0.00171
 164        5PY        -0.00233   0.00134  -0.00498  -0.00521   0.00912
 165        5PZ         0.00000   0.00001  -0.00003   0.00000   0.00008
 166 10  H  1S         -0.00223   0.00183  -0.00035  -0.00324   0.00857
 167        2S         -0.01333   0.02676   0.11331   0.00341   0.12797
 168        3S         -0.00003   0.00078  -0.01215   0.00185  -0.02020
 169        4PX         0.00011  -0.00003  -0.00118   0.00005   0.00036
 170        4PY        -0.00018   0.00055   0.00047   0.00024   0.00031
 171        4PZ        -0.00000   0.00000   0.00004   0.00000  -0.00006
 172        5PX         0.00314  -0.00231   0.00008   0.00024  -0.02983
 173        5PY         0.00439  -0.00709  -0.03363  -0.00106  -0.02868
 174        5PZ         0.00003  -0.00012  -0.00002   0.00000  -0.00166
 175 11  O  1S          0.59781   0.04323   0.05546   0.00494  -0.00010
 176        2S          0.00874   0.00067   0.03094   0.00281  -0.00402
 177        3S         -0.02790  -0.01015   0.00951  -0.00237  -0.01243
 178        4S         -0.01714  -0.01008  -0.17631  -0.02148   0.05585
 179        5PX         0.00181   0.00054   0.02671   0.00147   0.00313
 180        5PY         0.00152  -0.00105   0.01675   0.00235   0.00797
 181        5PZ        -0.00001   0.00002  -0.00076  -0.00008  -0.00064
 182        6PX        -0.00030   0.00212   0.03804   0.00430   0.00753
 183        6PY        -0.00113  -0.00190   0.02054   0.00183   0.01720
 184        6PZ         0.00000   0.00001  -0.00049  -0.00005  -0.00045
 185        7PX        -0.00145   0.01020  -0.03554  -0.00510   0.08545
 186        7PY        -0.00259  -0.00010  -0.02686  -0.00481   0.01911
 187        7PZ         0.00001   0.00001  -0.00023  -0.00002   0.00090
 188        8D 0       -0.00003   0.00061  -0.00284  -0.00022  -0.00133
 189        8D+1        0.00000   0.00000  -0.00010  -0.00001  -0.00017
 190        8D-1       -0.00000   0.00000  -0.00003  -0.00000  -0.00011
 191        8D+2        0.00008  -0.00050   0.00653   0.00056  -0.00494
 192        8D-2       -0.00013   0.00000   0.00239   0.00018   0.00443
 193        9D 0       -0.00055  -0.00059  -0.01009  -0.00122  -0.00123
 194        9D+1       -0.00000   0.00003  -0.00059  -0.00005   0.00034
 195        9D-1        0.00001  -0.00001   0.00012   0.00001  -0.00085
 196        9D+2        0.00030  -0.00185   0.01514   0.00143  -0.01714
 197        9D-2       -0.00184   0.00176   0.00691   0.00113   0.01744
 198 12  C  1S         -0.00767   0.00231  -0.13008  -0.01287  -0.12311
 199        2S         -0.00304  -0.00878   0.28224   0.02695   0.26567
 200        3S          0.00302  -0.00464   0.12076   0.01156   0.08793
 201        4S          0.00717  -0.00535   0.05261   0.01304   0.02502
 202        5PX        -0.00218  -0.00779   0.25977   0.02415  -0.13347
 203        5PY         0.00097   0.00761  -0.21859  -0.01910   0.33394
 204        5PZ         0.00005   0.00011  -0.00392  -0.00041  -0.01030
 205        6PX        -0.00464   0.00408  -0.04777  -0.00323   0.06263
 206        6PY        -0.00426  -0.00250   0.09209   0.00942  -0.03382
 207        6PZ        -0.00003  -0.00001   0.00101   0.00008   0.00009
 208        7PX        -0.00273   0.00441  -0.07306  -0.00992   0.02202
 209        7PY        -0.00148  -0.00209   0.04638   0.00498  -0.04401
 210        7PZ         0.00001  -0.00020   0.00262   0.00028  -0.00134
 211        8D 0        0.00012   0.00045  -0.01077  -0.00092   0.01468
 212        8D+1        0.00000   0.00004  -0.00089  -0.00008   0.00110
 213        8D-1       -0.00000  -0.00004   0.00101   0.00009  -0.00157
 214        8D+2       -0.00000  -0.00042   0.00409   0.00044  -0.00575
 215        8D-2        0.00029   0.00043  -0.01260  -0.00123   0.00353
 216        9D 0       -0.00058  -0.00409   0.06484   0.00615  -0.07089
 217        9D+1       -0.00002  -0.00015   0.00530   0.00052  -0.00538
 218        9D-1       -0.00001   0.00026  -0.00531  -0.00048   0.00746
 219        9D+2        0.00051  -0.00109  -0.00429  -0.00073  -0.00522
 220        9D-2        0.00197  -0.00375   0.06531   0.00577  -0.04137
 221 13  H  1S         -0.00306  -0.01333   0.41854   0.03870  -0.13117
 222        2S          0.00004  -0.02094   0.51222   0.04733  -0.41490
 223        3S         -0.00030  -0.00312   0.06503   0.00727  -0.03439
 224        4PX         0.00038   0.00062  -0.02193  -0.00204  -0.00169
 225        4PY        -0.00007  -0.00029   0.01487   0.00142   0.00975
 226        4PZ        -0.00000  -0.00004   0.00111   0.00010  -0.00037
 227        5PX         0.00044   0.00408  -0.10455  -0.00982   0.08630
 228        5PY        -0.00010  -0.00141   0.05821   0.00540  -0.03553
 229        5PZ         0.00000  -0.00023   0.00388   0.00035  -0.00214
 230 14  H  1S         -0.00101  -0.00007   0.02910   0.00355   0.27254
 231        2S          0.00264   0.00638  -0.17948  -0.01661   0.20224
 232        3S          0.00181   0.00045  -0.01294  -0.00129   0.01523
 233        4PX         0.00000  -0.00014   0.00767   0.00072  -0.00534
 234        4PY         0.00032   0.00034  -0.01175  -0.00112  -0.00460
 235        4PZ         0.00010   0.00037  -0.00941  -0.00096  -0.02241
 236        5PX        -0.00038   0.00112  -0.00565  -0.00091   0.01216
 237        5PY         0.00012  -0.00218   0.02795   0.00256  -0.04460
 238        5PZ        -0.00040   0.00001   0.02783   0.00266  -0.03340
 239 15  H  1S         -0.00094   0.00030   0.01771   0.00259   0.30449
 240        2S          0.00250   0.00706  -0.19866  -0.01835   0.24144
[...]
 ! D22   D(5,6,11,12)           -0.0248         -DE/DX =    0.0                 !
 ! D23   D(6,11,12,13)        -180.0019         -DE/DX =    0.0                 !
 ! D24   D(6,11,12,14)          61.3516         -DE/DX =    0.0                 !
 ! D25   D(6,11,12,15)         -61.3579         -DE/DX =    0.0                 !
 --------------------------------------------------------------------------------
 GradGradGradGradGradGradGradGradGradGradGradGradGradGradGradGradGradGrad

 Leave Link  103 at Sat Jun 27 00:53:02 2020, MaxMem=   524288000 cpu:               0.1 elap:               0.0
 (Enter /home/ubuntu/g16/l9999.exe)

 ----------------------------------------------------------------------

 Electric dipole moment (input orientation):
 (Debye = 10**-18 statcoulomb cm , SI units = C m)
                  (au)            (Debye)         (10**-30 SI)
   Tot        0.516945D+00      0.131394D+01      0.438285D+01
   x         -0.306389D+00     -0.778763D+00     -0.259767D+01
   y          0.283311D+00      0.720104D+00      0.240201D+01
   z          0.305112D+00      0.775518D+00      0.258685D+01

 Dipole polarizability, Alpha (input orientation).
 (esu units = cm**3 , SI units = C**2 m**2 J**-1)
 Alpha(0;0):
               (au)            (10**-24 esu)      (10**-40 SI)
   iso        0.831450D+02      0.123208D+02      0.137088D+02
   aniso      0.625169D+02      0.926404D+01      0.103076D+02
   xx         0.116134D+03      0.172093D+02      0.191479D+02
   yx         0.719506D+01      0.106620D+01      0.118631D+01
   yy         0.700639D+02      0.103824D+02      0.115520D+02
   zx        -0.135056D+02     -0.200133D+01     -0.222678D+01
   zy         0.155165D+02      0.229931D+01      0.255833D+01
   zz         0.632372D+02      0.937079D+01      0.104264D+02

 ----------------------------------------------------------------------

 Dipole orientation:
     6         -4.28907518         -1.55748754         -2.01469527
     6         -2.32575142         -0.41756185         -3.29516113
     6         -0.44350033          0.67791617         -1.79801784
     6         -0.33946245          0.74037271          0.85433132
     6         -2.29864866         -0.39756440          2.14593465
     6         -4.29576699         -1.55896810          0.71615598
     1         -5.85916440         -2.47079435         -2.98698287
     1         -2.25008315         -0.37556065         -5.35317133
     1          1.22077711          1.64802366          1.84773416
     1         -2.32877204         -0.41420139          4.20153259
     8         -6.24603524         -2.69131733          1.72574229
     6         -6.59479530         -2.89306113          4.45640385
     1         -8.36784791         -3.92264809          4.67426047
     1         -6.74111020         -0.99410244          5.27013209
     1         -5.01811799         -3.96107325          5.27080059

 Electric dipole moment (dipole orientation):
 (Debye = 10**-18 statcoulomb cm , SI units = C m)
                  (au)            (Debye)         (10**-30 SI)
   Tot        0.516945D+00      0.131394D+01      0.438285D+01
   x          0.000000D+00      0.000000D+00      0.000000D+00
   y          0.000000D+00      0.000000D+00      0.000000D+00
   z          0.516945D+00      0.131394D+01      0.438285D+01

 Dipole polarizability, Alpha (dipole orientation).
 (esu units = cm**3 , SI units = C**2 m**2 J**-1)
 Alpha(0;0):
               (au)            (10**-24 esu)      (10**-40 SI)
   iso        0.831450D+02      0.123208D+02      0.137088D+02
   aniso      0.625169D+02      0.926404D+01      0.103076D+02
   xx         0.892042D+02      0.132187D+02      0.147078D+02
   yx         0.242503D+02      0.359352D+01      0.399833D+01
   yy         0.615484D+02      0.912053D+01      0.101480D+02
   zx        -0.160158D+02     -0.237330D+01     -0.264066D+01
   zy        -0.927002D+01     -0.137367D+01     -0.152842D+01
   zz         0.986824D+02      0.146232D+02      0.162705D+02

 ----------------------------------------------------------------------
 1\1\GINC-LC06-4-8\Freq\UB3LYP\Aug-CC-pVDZ\C7H7O1(1+,3)\UBUNTU\27-Jun-2
 020\0\\#P Geom=AllCheck Guess=TCheck SCRF=Check GenChk UB3LYP/Aug-CC-p
 VDZ Freq\\t-4-MeOPh+_UB3LYP-aug-cc-pVDZ\\1,3\C,-1.304768867,-1.7164183
 951,-1.522779109\C,0.0294916778,-1.3862659621,-1.6375298136\C,0.454357
 7098,-0.2784087257,-0.8972821507\C,-0.3278774716,0.5288639725,-0.05435
 23868\C,-1.6637103786,0.2032423477,0.0645978812\C,-2.164188123,-0.9257
 914568,-0.6715170818\H,-1.7458603777,-2.5601251137,-2.054023933\H,0.71
 06996309,-1.9569110765,-2.2687601261\H,0.1019193036,1.3752020977,0.482
 0384396\H,-2.3226428096,0.7889979005,0.7020034223\O,-3.4072889035,-1.3
 298396075,-0.6394732208\C,-4.4293235983,-0.6622007927,0.1625229503\H,-
 5.3399370628,-1.2325979596,-0.0269363369\H,-4.5396024299,0.3730626362,
 -0.1799389785\H,-4.1501583001,-0.714009865,1.2211304438\\Version=ES64L
 -G16RevA.03\State=3-A\HF=-345.828983\S2=2.02247\S2-1=0.\S2A=2.000214\R
 MSD=5.675e-09\RMSF=8.075e-06\ZeroPoint=0.119228\Thermal=0.126288\Dipol
 e=-0.3063889,0.2833106,0.3051122\DipoleDeriv=0.1804767,0.1822558,0.083
 4892,0.1130212,0.0377108,0.0189771,0.029926,-0.0002227,-0.0357727,-0.2
 504669,-0.2797546,-0.1591513,-0.3264657,-0.1998576,-0.0307239,-0.19535
 64,-0.0437248,-0.0228097,0.3675744,0.047755,-0.034312,-0.0007816,0.265
 1385,0.1196757,-0.0719901,0.1062082,0.2133015,-0.3459596,0.1240041,0.1
 859121,0.2260639,0.0711984,0.0100606,0.2649982,0.0383657,-0.0667461,0.
 0473443,-0.0672766,-0.0787159,-0.1146476,-0.1388812,-0.0385594,-0.1154
 451,-0.0516512,-0.0559486,1.0655385,0.1612363,-0.1067609,0.4250489,0.3
 245092,-0.0455593,0.0978582,0.0277515,0.2251825,0.0878469,-0.0141809,0
 .0061047,-0.0061723,0.1287915,-0.0142401,0.0122961,-0.0120155,0.136664
 1,0.1399472,-0.0072966,-0.0035225,-0.0038195,0.1244455,-0.0168857,-0.0
 008192,-0.0159148,0.135508,0.1347775,0.014201,0.0124604,0.009024,0.123
 4222,-0.0153774,0.0084455,-0.0168248,0.1246322,0.070669,0.0069762,0.02
 55117,-0.0003862,0.1179794,-0.0192671,0.0198029,-0.0213325,0.1209532,-
 1.3227473,-0.0655125,0.2692407,-0.2381327,-0.2638078,-0.0058056,0.1351
 016,-0.0538391,-0.2502532,0.8092885,-0.0660914,-0.213188,-0.1286484,0.
 2384866,0.0447994,-0.261462,0.0274572,0.3207919,0.0473166,-0.001807,0.
 0175394,-0.0260176,0.0756424,-0.0236714,-0.0012408,-0.0304005,0.092226
 7,0.0096578,-0.0473265,0.0496352,0.0086243,0.0096544,0.0204001,0.08195
 27,0.0501587,0.0436532,-0.0412634,0.0128175,-0.0542427,0.0632894,0.085
 5677,-0.003823,-0.0040678,-0.0040154,0.018617\Polar=116.1339158,7.1950
 612,70.0638831,-13.5056425,15.5165426,63.2372148\Quadrupole=7.327809,-
 3.1324184,-4.1953906,-0.2384599,-4.7933628,4.8105123\PG=C01 [X(C7H7O1)
 ]\NImag=0\\0.68695828,0.13538519,0.48962218,-0.05098597,0.24444036,0.3
 2918786,-0.36915674,-0.08020757,0.02431545,0.63819790,-0.04279380,-0.0
 9908255,-0.02009182,0.00129754,0.44703112,0.05330599,-0.00969995,-0.08
 013216,-0.14262933,0.25223789,0.35598960,-0.01596050,-0.03413079,-0.01
 854801,-0.10313600,-0.05460583,-0.02815986,0.29498382,-0.06082847,-0.0
 1783481,-0.00658269,-0.02095431,-0.20291602,-0.11091608,0.00354775,0.3
 7680280,-0.03923348,-0.01399684,0.01252136,-0.00208500,-0.10157194,-0.
 13032757,-0.05786449,0.23139938,0.27224731,-0.03138385,0.00844369,0.01
 492275,0.05111890,0.02318543,0.00652748,-0.13889974,0.04214069,0.05612
 173,0.61319403,0.00881935,-0.00049959,-0.00189438,0.01164436,-0.021474
 98,-0.02757897,0.06402917,-0.15451084,-0.09534258,0.11743882,0.5050192
 8,0.01521697,-0.00178964,-0.00683030,-0.00241975,-0.03078645,-0.013241
 43,0.07308445,-0.08926028,-0.14391207,-0.04472686,0.26196470,0.3402809
 1,0.03573334,0.00503329,-0.00330962,-0.01495379,-0.01577393,-0.0085266
 4,-0.04005940,0.03043357,0.03839085,-0.37067624,-0.09428711,0.01380400
 ,0.70612050,0.01568043,-0.01879565,-0.02650652,-0.01233758,-0.00922843
 ,-0.00243551,0.01608769,0.01441931,-0.00354555,-0.06084227,-0.10598787
 ,-0.02014349,0.03101448,0.44378328,0.00493205,-0.02354436,-0.00983594,
 -0.00586783,-0.00148083,-0.00117613,0.02727859,-0.00752823,-0.00018966
 ,0.03972086,-0.01085486,-0.07762244,-0.13899914,0.24264367,0.34642518,
 -0.12321586,0.05241911,0.05544841,-0.03401098,0.00980624,0.01810773,-0
 .00230799,0.00217259,-0.00053043,-0.02019805,-0.03037736,-0.01719099,-
 0.11485159,-0.03583449,-0.01578070,0.67374850,0.03077358,-0.15270013,-
 0.07276697,-0.00280203,0.00718025,0.00335973,0.00090937,0.00571934,0.0
 1213252,-0.02748383,-0.00523615,0.00150972,-0.00274212,-0.18476932,-0.
 08689457,0.08421147,0.44795231,0.03868321,-0.07879042,-0.14159877,0.00
 833964,-0.00013845,0.00141737,-0.00150370,0.01178080,-0.00071140,-0.01
 494299,0.00232212,0.00860746,0.00985718,-0.07769787,-0.13467813,-0.075
 37211,0.19409275,0.33874740,-0.10115660,-0.09358373,-0.05474046,-0.005
 52863,-0.02166579,-0.01314434,-0.00536778,-0.00369467,0.00095944,-0.00
 010081,0.00089385,0.00005974,-0.00233721,0.00144003,0.00250298,0.00915
 323,0.01602420,0.01099680,0.10223124,-0.09172050,-0.22447550,-0.119671
 09,0.00061124,0.00264657,-0.00399983,-0.00175335,0.00270556,-0.0039208
 2,0.00001476,-0.00048636,0.00146284,0.00184454,0.00051296,-0.00217291,
 -0.00766476,-0.00746917,-0.00679303,0.09915016,0.22805034,-0.05330198,
 -0.11915539,-0.11467749,0.00412186,0.00218961,0.00814139,0.00246186,-0
 .00338278,0.00508935,-0.00062160,0.00121878,-0.00126237,0.00281543,-0.
 00206045,0.00027690,-0.00735417,-0.01337036,-0.00427332,0.05496414,0.1
 3095211,0.10971100,-0.01319168,0.01535376,0.01753303,-0.16562595,0.091
 82393,0.10693016,0.01055881,-0.00475973,-0.00702557,-0.00009668,-0.003
 89834,-0.00164761,-0.00061731,0.00006052,-0.00015812,-0.00273133,-0.00
 339165,0.00070355,0.00094220,0.00086065,-0.00106575,0.17160825,-0.0073
 3726,0.00957076,0.00394216,0.09530718,-0.12665924,-0.09613498,0.013308
 29,-0.01155430,-0.01151445,-0.00206485,-0.00077864,-0.00378507,-0.0002
 0251,-0.00025352,0.00091072,-0.00324858,0.00272460,-0.00416627,0.00087
 913,-0.00150211,0.00269571,-0.09666515,0.12838356,-0.00004695,-0.00235
 926,0.00529721,0.10962779,-0.09516742,-0.14089244,0.00697162,-0.006496
 11,-0.00843245,-0.00022625,-0.00327619,0.00237352,-0.00036159,0.000837
 17,-0.00060756,0.00081603,-0.00412742,0.00584323,-0.00105117,0.0027014
 0,-0.00291248,-0.11583789,0.10760275,0.13966026,-0.00088466,-0.0000718
 1,-0.00021769,-0.00193213,0.00248358,0.00377218,0.01014248,0.01483952,
 0.00835857,-0.09708947,-0.08923835,-0.05254804,-0.00712862,-0.02353012
 ,-0.01399490,-0.00418763,-0.00140744,0.00286268,-0.00000257,0.00003672
 ,-0.00010490,0.00052051,0.00047358,0.00040371,0.10010873,0.00037845,-0
 .00016146,0.00090650,0.00054359,0.00135606,-0.00275727,-0.00359104,-0.
 01068827,-0.00638379,-0.09297115,-0.22248224,-0.11762391,-0.00084310,0
 .00154268,-0.00487117,-0.00135808,0.00399661,-0.00429853,0.00001338,-0
 .00018783,0.00022460,-0.00031927,0.00001725,-0.00040406,0.09673409,0.2
 2858752,0.00013368,0.00103087,-0.00070539,0.00226970,-0.00329693,0.001
 53412,-0.00592730,-0.01150537,-0.00843142,-0.05543428,-0.11866138,-0.1
 1389989,0.00357951,0.00143114,0.00824500,0.00290027,-0.00428360,0.0059
 0607,-0.00012276,0.00021807,-0.00027937,-0.00021084,-0.00062455,0.0002
 2794,0.05384641,0.13155067,0.11111252,-0.00063551,-0.00277795,-0.00113
 202,0.00013057,-0.00034535,-0.00094868,-0.00537942,-0.00179879,0.00259
 622,-0.01281227,0.01531755,0.01733169,-0.16048915,0.09323596,0.1072818
 6,0.01139722,-0.00730971,-0.00818691,0.00064152,-0.00056503,-0.0002190
 1,-0.00004915,0.00012998,-0.00004810,0.00099254,0.00112287,-0.00098155
 ,0.17032084,-0.00325425,-0.00153557,-0.00264070,0.00072682,-0.00050673
 ,0.00120213,-0.00318725,0.00311818,-0.00365346,-0.00778179,0.00909143,
 0.00392509,0.09253751,-0.13486985,-0.10343624,0.01526290,-0.00759277,-
 0.01193781,0.00062233,0.00019956,-0.00112332,0.00011261,-0.00017850,0.
 00028340,0.00097000,-0.00153496,0.00293280,-0.09630334,0.13331199,-0.0
 0150336,-0.00277178,0.00130435,-0.00011566,0.00150155,-0.00112142,0.00
 151977,-0.00403935,0.00541719,-0.00058095,-0.00249529,0.00504553,0.106
 74501,-0.10363572,-0.14468283,0.00931403,-0.00565740,-0.00463974,0.000
 70040,-0.00079331,0.00061657,-0.00006132,0.00027831,-0.00035150,-0.001
 09903,0.00288853,-0.00311994,-0.11570600,0.11251697,0.14213756,-0.0664
 6972,-0.00138508,0.01774299,0.00560960,0.00560725,0.00365987,-0.003744
 31,-0.00305463,-0.00129164,0.00588150,-0.00057309,-0.00091116,-0.03410
 040,-0.02672461,-0.00594401,-0.35326892,-0.10159604,0.00670863,0.00152
 423,-0.00116883,-0.00186717,-0.00105665,-0.00051105,-0.00004645,-0.000
 79974,0.00043865,-0.00008033,-0.00033345,0.00107722,0.00025770,0.59095
 963,0.01897238,0.01280220,0.00364943,0.00590548,0.00061652,-0.00359386
 ,-0.00011688,-0.00486851,-0.00383475,-0.00113194,-0.00255289,-0.004924
 63,-0.04229935,-0.00310184,-0.00544259,-0.08380324,-0.11758380,-0.0325
 8540,-0.00012906,0.00000792,0.00153908,0.00082862,0.00054887,0.0000376
 6,-0.00112503,-0.00076625,0.00151244,0.00156397,0.00011631,0.00151865,
 0.06213903,0.21947490,0.03352658,0.00930539,-0.00079893,0.00389208,-0.
 00351501,-0.00066457,0.00098476,-0.00301951,-0.00249155,-0.00134637,-0
 .00508015,0.00064327,-0.01801224,-0.00975818,0.01651170,0.02051587,-0.
 02765184,-0.07267184,-0.00106037,0.00182880,-0.00022157,0.00099251,0.0
 0041066,0.00024443,-0.00129339,0.00107684,-0.00111840,0.00063727,0.001
 65542,-0.00129830,-0.09617896,0.09754026,0.17381172,0.00010650,-0.0036
 9323,-0.00043112,0.00088712,0.00208885,0.00149710,-0.00120954,0.000792
 13,0.00079508,0.00167856,0.00024623,-0.00031086,0.00185658,0.00108923,
 -0.00129331,-0.04530840,0.00897246,0.01813828,-0.00005062,0.00045531,0
 .00022905,-0.00016019,0.00001474,-0.00016157,0.00033721,-0.00014472,0.
 00005242,-0.00120805,0.00011758,0.00072237,-0.10001708,0.01697202,0.02
 542927,0.50349385,-0.00591420,0.00320900,-0.00273043,0.00054764,0.0013
 4582,0.00054056,-0.00035016,-0.00086570,-0.00014104,0.00092984,-0.0002
 5623,-0.00035698,-0.00523916,-0.00419217,0.00272645,0.00263669,0.00977
 298,0.01078662,0.00012303,-0.00016936,0.00021899,-0.00009432,-0.000344
 48,0.00036564,-0.00020618,0.00037920,-0.00036919,-0.00102766,0.0002890
 7,-0.00031449,0.02854130,-0.09579073,-0.03886479,0.08885718,0.55916707
 ,-0.00216594,-0.00334199,0.00685187,0.00030373,0.00011513,0.00045704,-
 0.00009124,-0.00045917,-0.00088820,0.00022108,-0.00016857,-0.00031947,
 -0.00620057,0.00096040,-0.00335815,0.01322199,0.00902851,-0.00175865,-
 0.00002805,0.00012622,-0.00039058,-0.00024622,0.00033477,-0.00045381,0
 .00000461,-0.00038575,0.00062821,-0.00016693,-0.00063133,0.00061783,0.
 03440978,-0.03565012,-0.09311478,0.09359339,-0.05034746,0.52706440,-0.
 00066761,-0.00049206,-0.00013265,-0.00016543,0.00011389,0.00013738,0.0
 0003336,0.00009447,0.00006042,0.00004028,-0.00009321,-0.00005558,0.000
 17318,0.00035860,0.00034859,-0.00035824,0.00244683,0.00217187,-0.00001
 756,0.00000159,0.00002146,-0.00007232,-0.00003542,-0.00002301,-0.00002
 434,-0.00000027,0.00000247,0.00002990,-0.00007865,-0.00017047,-0.02847
 338,-0.00803407,0.00147329,-0.24001585,-0.12507608,-0.04417043,0.26634
 055,0.00058924,0.00048323,0.00003482,0.00028458,0.00000807,-0.00008149
 ,-0.00010711,-0.00016508,-0.00008864,-0.00003744,0.00021332,0.00009833
 ,0.00000532,-0.00046409,-0.00069373,0.00241425,-0.00130095,-0.00216853
 ,-0.00001474,0.00002065,-0.00002275,0.00006013,0.00001216,0.00003636,0
 .00003545,0.00000202,0.00000314,-0.00018429,0.00013502,0.00043806,0.02
 348447,0.00770265,0.00002876,-0.13941835,-0.13475900,-0.02717520,0.132
 63787,0.13725487,0.00070596,0.00033575,0.00029049,0.00026970,-0.000034
 33,-0.00009016,-0.00009565,-0.00014464,-0.00009765,-0.00001234,0.00011
 378,0.00019151,0.00007536,-0.00079184,-0.00020597,0.00214853,-0.002177
 89,-0.00165524,0.00000882,-0.00002727,0.00003161,0.00005111,0.00006287
 ,-0.00002168,0.00003016,0.00001311,-0.00001305,-0.00025237,0.00040846,
 0.00002320,0.02592568,0.00878863,-0.00113545,-0.05529923,-0.03116152,-
 0.05859599,0.04161862,0.03407451,0.06068995,0.00022517,-0.00103820,0.0
 0093820,-0.00069251,-0.00063213,-0.00023376,0.00014942,0.00063551,0.00
 024229,-0.00023171,-0.00011812,0.00020356,0.00052636,0.00056384,-0.000
 27984,0.00293428,0.00265754,-0.00032065,0.00002626,-0.00000598,-0.0001
 0470,-0.00004825,0.00006330,-0.00011823,-0.00002518,-0.00002728,0.0000
 2339,-0.00150500,-0.00010832,-0.00061491,-0.01305572,0.02791248,-0.002
 18570,-0.04919651,0.01278981,-0.00606301,0.00619218,-0.02326655,0.0088
 8911,0.05424302,0.00067406,-0.00000031,-0.00048797,-0.00033082,-0.0001
 5970,-0.00007835,-0.00005460,0.00031837,0.00023831,-0.00011110,0.00019
 604,-0.00000002,0.00043183,0.00014005,0.00029825,-0.00370916,-0.000876
 35,0.00007203,-0.00004326,0.00005249,0.00008331,0.00003289,-0.00002487
 ,0.00001671,0.00001691,-0.00000524,-0.00001264,-0.00045057,0.00047442,
 0.00023834,0.01016448,-0.01266696,-0.00376735,0.01995025,-0.29025730,0
 .08661267,0.00210727,-0.01151689,0.00640822,-0.02673582,0.31257891,-0.
 00001203,0.00066204,-0.00100229,0.00004095,0.00004639,0.00002989,-0.00
 000128,0.00005170,0.00012747,0.00039768,-0.00031964,-0.00034764,0.0000
 3480,0.00055450,0.00114899,-0.00233482,-0.00170505,0.00139835,0.000020
 09,0.00000353,0.00010468,0.00002761,-0.00005000,0.00007836,-0.00005090
 ,0.00006356,-0.00006909,-0.00030305,-0.00011665,-0.00026882,0.01014911
 ,-0.02428698,0.00072101,-0.00952277,0.09279715,-0.07802609,0.00009577,
 -0.00624526,0.00263621,0.00313314,-0.08884041,0.07878611,-0.00030056,0
 .00074537,-0.00140330,-0.00074192,-0.00058988,-0.00029527,0.00019679,0
 .00043436,0.00050602,-0.00042445,0.00019623,0.00011044,0.00080375,-0.0
 0026170,0.00025293,0.00320576,0.00073737,0.00186452,0.00004310,-0.0000
 9652,0.00002548,0.00001974,-0.00011136,0.00010205,-0.00002713,0.000023
 88,-0.00005079,-0.00110058,-0.00071337,0.00059242,-0.00265558,0.002345
 57,0.03262540,-0.07119357,0.00348225,-0.08262219,-0.00301472,0.0035171
 7,-0.02406346,0.00045819,-0.00194235,-0.00167431,0.07473118,0.00057581
 ,-0.00060181,0.00039931,-0.00023613,-0.00015677,-0.00006404,0.00001473
 ,0.00031997,0.00022365,0.00027116,-0.00025428,-0.00029023,0.00008673,0
 .00126446,0.00034040,-0.00292757,0.00018255,-0.00047802,-0.00001485,0.
 00009429,-0.00000712,-0.00000466,0.00003846,-0.00005062,-0.00001093,-0
 .00005510,0.00007451,-0.00060764,-0.00051760,0.00032693,0.00356094,-0.
 00393839,-0.02018932,0.00370031,-0.04752816,0.02098189,-0.00395077,0.0
 0237403,-0.01586783,0.00730991,0.00174732,0.02738512,-0.00776703,0.047
 03103,0.00074528,-0.00032480,0.00012814,-0.00006334,-0.00000739,0.0000
 7648,-0.00010951,0.00010233,0.00007929,-0.00001994,0.00005263,0.000293
 42,0.00010767,0.00014825,-0.00025095,-0.00390964,-0.00148813,0.0000672
 2,-0.00006527,0.00008530,0.00004570,0.00001533,0.00003736,-0.00005303,
 0.00003055,0.00000067,-0.00001730,0.00009759,0.00061524,0.00032033,0.0
 0746595,-0.00426783,-0.01841673,-0.07343811,0.01685048,-0.29871365,-0.
 00137773,0.00176163,-0.00204778,-0.00350891,-0.00078112,-0.00531714,0.
 07403007,-0.01278463,0.32380599\\-0.00002243,-0.00000559,0.00002012,-0
 .00000777,0.00000006,0.00000510,0.00000247,0.00000301,-0.00000347,0.00
 001188,-0.00000055,-0.00000287,0.00001017,0.00000308,-0.00000505,0.000
 00936,0.00000136,-0.00002310,0.00001252,0.00000157,-0.00000310,0.00000
 287,-0.00000288,0.00000030,-0.00000887,0.00000154,-0.00000056,-0.00000
 255,-0.00000583,0.00001080,-0.00000007,0.00000209,-0.00000948,-0.00001
 248,0.00001233,0.00000258,-0.00000084,0.00000051,0.00000024,0.00000097
 ,-0.00000719,0.00000176,0.00000476,-0.00000349,0.00000675\\\@


 THE POLHOLDE ROLLS WITHOUT SLIPPING ON THE HERPOLHOLDE LYING IN
 THE INVARIABLE PLANE.
 H.GOLDSTEIN, "CLASSICAL MECHANICS", PG 161
 Job cpu time:       0 days  1 hours 58 minutes 13.8 seconds.
 Elapsed time:       0 days  0 hours 16 minutes 53.5 seconds.
 File lengths (MBytes):  RWF=    169 Int=      0 D2E=      0 Chk=      8 Scr=      1
 Normal termination of Gaussian 16 at Sat Jun 27 00:53:02 2020.
