 Entering Gaussian System, Link 0=/home/ubuntu/g16/g16
 Input=t-4-NO2Ph+_UB3LYP-aug-cc-pVDZ-Opt.gjf
 Output=t-4-NO2Ph+_UB3LYP-aug-cc-pVDZ-Opt.log
 Initial command:
 /home/ubuntu/g16/l1.exe "/home/ubuntu/g16/Gau-12992.inp" -scrdir="/home/ubuntu/g16/"
 Entering Link 1 = /home/ubuntu/g16/l1.exe PID=     12994.
  
 Copyright (c) 1988,1990,1992,1993,1995,1998,2003,2009,2016,
            Gaussian, Inc.  All Rights Reserved.
  
 This is part of the Gaussian(R) 16 program.  It is based on
 the Gaussian(R) 09 system (copyright 2009, Gaussian, Inc.),
 the Gaussian(R) 03 system (copyright 2003, Gaussian, Inc.),
 the Gaussian(R) 98 system (copyright 1998, Gaussian, Inc.),
 the Gaussian(R) 94 system (copyright 1995, Gaussian, Inc.),
 the Gaussian 92(TM) system (copyright 1992, Gaussian, Inc.),
 the Gaussian 90(TM) system (copyright 1990, Gaussian, Inc.),
 the Gaussian 88(TM) system (copyright 1988, Gaussian, Inc.),
 the Gaussian 86(TM) system (copyright 1986, Carnegie Mellon
 University), and the Gaussian 82(TM) system (copyright 1983,
 Carnegie Mellon University). Gaussian is a federally registered
 trademark of Gaussian, Inc.
  
 This software contains proprietary and confidential information,
 including trade secrets, belonging to Gaussian, Inc.
  
 This software is provided under written license and may be
 used, copied, transmitted, or stored only in accord with that
 written license.
  
 The following legend is applicable only to US Government
 contracts under FAR:
  
                    RESTRICTED RIGHTS LEGEND
  
 Use, reproduction and disclosure by the US Government is
 subject to restrictions as set forth in subparagraphs (a)
 and (c) of the Commercial Computer Software - Restricted
 Rights clause in FAR 52.227-19.
  
 Gaussian, Inc.
 340 Quinnipiac St., Bldg. 40, Wallingford CT 06492
  
  
 ---------------------------------------------------------------
 Warning -- This program may not be used in any manner that
 competes with the business of Gaussian, Inc. or will provide
 assistance to any competitor of Gaussian, Inc.  The licensee
 of this program is prohibited from giving any competitor of
 Gaussian, Inc. access to this program.  By using this program,
 the user acknowledges that Gaussian, Inc. is engaged in the
 business of creating and licensing software in the field of
 computational chemistry and represents and warrants to the
 licensee that it is not a competitor of Gaussian, Inc. and that
 it will not use this program in any manner prohibited above.
 ---------------------------------------------------------------
  

 Cite this work as:
 Gaussian 16, Revision A.03,
 M. J. Frisch, G. W. Trucks, H. B. Schlegel, G. E. Scuseria, 
 M. A. Robb, J. R. Cheeseman, G. Scalmani, V. Barone, 
 G. A. Petersson, H. Nakatsuji, X. Li, M. Caricato, A. V. Marenich, 
 J. Bloino, B. G. Janesko, R. Gomperts, B. Mennucci, H. P. Hratchian, 
 J. V. Ortiz, A. F. Izmaylov, J. L. Sonnenberg, D. Williams-Young, 
 F. Ding, F. Lipparini, F. Egidi, J. Goings, B. Peng, A. Petrone, 
 T. Henderson, D. Ranasinghe, V. G. Zakrzewski, J. Gao, N. Rega, 
 G. Zheng, W. Liang, M. Hada, M. Ehara, K. Toyota, R. Fukuda, 
 J. Hasegawa, M. Ishida, T. Nakajima, Y. Honda, O. Kitao, H. Nakai, 
 T. Vreven, K. Throssell, J. A. Montgomery, Jr., J. E. Peralta, 
 F. Ogliaro, M. J. Bearpark, J. J. Heyd, E. N. Brothers, K. N. Kudin, 
 V. N. Staroverov, T. A. Keith, R. Kobayashi, J. Normand, 
 K. Raghavachari, A. P. Rendell, J. C. Burant, S. S. Iyengar, 
 J. Tomasi, M. Cossi, J. M. Millam, M. Klene, C. Adamo, R. Cammi, 
 J. W. Ochterski, R. L. Martin, K. Morokuma, O. Farkas, 
 J. B. Foresman, and D. J. Fox, Gaussian, Inc., Wallingford CT, 2016.
 
 ******************************************
 Gaussian 16:  ES64L-G16RevA.03 25-Dec-2016
                27-Jun-2020 
 ******************************************
 %chk=t-4-NO2Ph+_UB3LYP-aug-cc-pVDZ-Opt.chk
 %mem=500MW
 %nproc=7
 Will use up to    7 processors via shared memory.
 ----------------------------------------------------------------------
 #p opt=(maxcycles=777) freq ub3lyp/aug-cc-pVDZ pop=(Bonding,AllOrbital
 s,mk,no,nboread)
 ----------------------------------------------------------------------
 1/6=777,18=20,19=15,26=3,38=1/1,3;
 2/9=110,12=2,17=6,18=5,40=1/2;
 3/5=16,7=10,11=2,25=1,30=1,71=1,74=-5,116=2/1,2,3;
 4//1;
 5/5=2,38=5/2;
 6/7=2,8=2,9=2,10=2,15=8,20=1,22=-1,27=20,28=1,31=1,40=2,96=-1/1,2,7;
 7//1,2,3,16;
 1/6=777,18=20,19=15,26=3/3(2);
 2/9=110/2;
 99//99;
 2/9=110/2;
 3/5=16,7=10,11=2,25=1,30=1,71=1,74=-5,116=2/1,2,3;
 4/5=5,16=3,69=1/1;
 5/5=2,38=5/2;
 7//1,2,3,16;
 1/6=777,18=20,19=15,26=3/3(-5);
 2/9=110/2;
 6/7=2,8=2,9=2,10=2,15=8,19=2,20=1,22=-1,27=20,28=1,31=1,40=2,96=-1/1,2,7;
 99/9=1/99;
 Leave Link    1 at Sat Jun 27 02:15:37 2020, MaxMem=   524288000 cpu:               0.5 elap:               0.1
 (Enter /home/ubuntu/g16/l101.exe)
 -----------------------------
 t-4-NO2Ph+_UB3LYP-aug-cc-pVDZ
 -----------------------------
 Symbolic Z-matrix:
 Charge =  1 Multiplicity = 3
 C                    -1.46482  -1.55252  -1.42937 
 C                    -0.09237  -1.40014  -1.38233 
 C                     0.37679  -0.2061   -0.80279 
 C                    -0.38066   0.8517   -0.26707 
 C                    -1.75308   0.69966  -0.31763 
 C                    -2.26584  -0.5      -0.8959 
 H                    -1.93915  -2.44159  -1.84555 
 H                     0.58877  -2.16016  -1.76688 
 H                     0.08969   1.73834   0.15934 
 H                    -2.43847   1.45956   0.05884 
 N                    -3.71163  -0.65979  -0.94701 
 O                    -4.32546   0.19556  -1.56509 
 O                    -4.17667  -1.62981  -0.37307 
 
 ITRead=  0  0  0  0  0  0  0  0  0  0  0  0  0
 MicOpt= -1 -1 -1 -1 -1 -1 -1 -1 -1 -1 -1 -1 -1
 NAtoms=     13 NQM=       13 NQMF=       0 NMMI=      0 NMMIF=      0
                NMic=       0 NMicF=      0.
                    Isotopes and Nuclear Properties:
 (Nuclear quadrupole moments (NQMom) in fm**2, nuclear magnetic moments (NMagM)
  in nuclear magnetons)

  Atom         1           2           3           4           5           6           7           8           9          10
 IAtWgt=          12          12          12          12          12          12           1           1           1           1
 AtmWgt=  12.0000000  12.0000000  12.0000000  12.0000000  12.0000000  12.0000000   1.0078250   1.0078250   1.0078250   1.0078250
 NucSpn=           0           0           0           0           0           0           1           1           1           1
 AtZEff=  -0.0000000  -0.0000000  -0.0000000  -0.0000000  -0.0000000  -0.0000000  -0.0000000  -0.0000000  -0.0000000  -0.0000000
 NQMom=    0.0000000   0.0000000   0.0000000   0.0000000   0.0000000   0.0000000   0.0000000   0.0000000   0.0000000   0.0000000
 NMagM=    0.0000000   0.0000000   0.0000000   0.0000000   0.0000000   0.0000000   2.7928460   2.7928460   2.7928460   2.7928460
 AtZNuc=   6.0000000   6.0000000   6.0000000   6.0000000   6.0000000   6.0000000   1.0000000   1.0000000   1.0000000   1.0000000

  Atom        11          12          13
 IAtWgt=          14          16          16
 AtmWgt=  14.0030740  15.9949146  15.9949146
 NucSpn=           2           0           0
 AtZEff=  -0.0000000  -0.0000000  -0.0000000
 NQMom=    2.0440000   0.0000000   0.0000000
 NMagM=    0.4037610   0.0000000   0.0000000
 AtZNuc=   7.0000000   8.0000000   8.0000000
 Leave Link  101 at Sat Jun 27 02:15:37 2020, MaxMem=   524288000 cpu:               1.3 elap:               0.2
 (Enter /home/ubuntu/g16/l103.exe)

 GradGradGradGradGradGradGradGradGradGradGradGradGradGradGradGradGradGrad
 Berny optimization.
 Initialization pass.
                           ----------------------------
                           !    Initial Parameters    !
                           ! (Angstroms and Degrees)  !
 --------------------------                            --------------------------
 ! Name  Definition              Value          Derivative Info.                !
 --------------------------------------------------------------------------------
 ! R1    R(1,2)                  1.3817         estimate D2E/DX2                !
 ! R2    R(1,6)                  1.4262         estimate D2E/DX2                !
 ! R3    R(1,7)                  1.0902         estimate D2E/DX2                !
 ! R4    R(2,3)                  1.4077         estimate D2E/DX2                !
 ! R5    R(2,8)                  1.0906         estimate D2E/DX2                !
 ! R6    R(3,4)                  1.407          estimate D2E/DX2                !
 ! R7    R(4,5)                  1.3817         estimate D2E/DX2                !
 ! R8    R(4,9)                  1.0905         estimate D2E/DX2                !
 ! R9    R(5,6)                  1.4271         estimate D2E/DX2                !
 ! R10   R(5,10)                 1.0904         estimate D2E/DX2                !
 ! R11   R(6,11)                 1.4555         estimate D2E/DX2                !
 ! R12   R(11,12)                1.2208         estimate D2E/DX2                !
 ! R13   R(11,13)                1.2193         estimate D2E/DX2                !
 ! A1    A(2,1,6)              117.6307         estimate D2E/DX2                !
 ! A2    A(2,1,7)              122.35           estimate D2E/DX2                !
 ! A3    A(6,1,7)              120.0164         estimate D2E/DX2                !
 ! A4    A(1,2,3)              116.015          estimate D2E/DX2                !
 ! A5    A(1,2,8)              122.1075         estimate D2E/DX2                !
 ! A6    A(3,2,8)              121.8771         estimate D2E/DX2                !
 ! A7    A(2,3,4)              127.9533         estimate D2E/DX2                !
 ! A8    A(3,4,5)              115.9797         estimate D2E/DX2                !
 ! A9    A(3,4,9)              121.8672         estimate D2E/DX2                !
 ! A10   A(5,4,9)              122.1529         estimate D2E/DX2                !
 ! A11   A(4,5,6)              117.6595         estimate D2E/DX2                !
 ! A12   A(4,5,10)             122.3451         estimate D2E/DX2                !
 ! A13   A(6,5,10)             119.9941         estimate D2E/DX2                !
 ! A14   A(1,6,5)              124.7614         estimate D2E/DX2                !
 ! A15   A(1,6,11)             117.6294         estimate D2E/DX2                !
 ! A16   A(5,6,11)             117.6091         estimate D2E/DX2                !
 ! A17   A(6,11,12)            116.1233         estimate D2E/DX2                !
 ! A18   A(6,11,13)            116.7232         estimate D2E/DX2                !
 ! A19   A(12,11,13)           127.1533         estimate D2E/DX2                !
 ! D1    D(6,1,2,3)              0.0932         estimate D2E/DX2                !
 ! D2    D(6,1,2,8)            179.8469         estimate D2E/DX2                !
 ! D3    D(7,1,2,3)           -179.2874         estimate D2E/DX2                !
 ! D4    D(7,1,2,8)              0.4664         estimate D2E/DX2                !
 ! D5    D(2,1,6,5)              0.0375         estimate D2E/DX2                !
 ! D6    D(2,1,6,11)           179.9236         estimate D2E/DX2                !
 ! D7    D(7,1,6,5)            179.4331         estimate D2E/DX2                !
 ! D8    D(7,1,6,11)            -0.6808         estimate D2E/DX2                !
 ! D9    D(1,2,3,4)             -0.0812         estimate D2E/DX2                !
 ! D10   D(8,2,3,4)           -179.8356         estimate D2E/DX2                !
 ! D11   D(2,3,4,5)             -0.0714         estimate D2E/DX2                !
 ! D12   D(2,3,4,9)           -179.9106         estimate D2E/DX2                !
 ! D13   D(3,4,5,6)              0.1954         estimate D2E/DX2                !
 ! D14   D(3,4,5,10)          -179.3921         estimate D2E/DX2                !
 ! D15   D(9,4,5,6)           -179.9658         estimate D2E/DX2                !
 ! D16   D(9,4,5,10)             0.4466         estimate D2E/DX2                !
 ! D17   D(4,5,6,1)             -0.1924         estimate D2E/DX2                !
 ! D18   D(4,5,6,11)           179.9215         estimate D2E/DX2                !
 ! D19   D(10,5,6,1)           179.4053         estimate D2E/DX2                !
 ! D20   D(10,5,6,11)           -0.4808         estimate D2E/DX2                !
 ! D21   D(1,6,11,12)         -120.6808         estimate D2E/DX2                !
 ! D22   D(1,6,11,13)           59.185          estimate D2E/DX2                !
 ! D23   D(5,6,11,12)           59.2136         estimate D2E/DX2                !
 ! D24   D(5,6,11,13)         -120.9206         estimate D2E/DX2                !
 --------------------------------------------------------------------------------
 Trust Radius=3.00D-01 FncErr=1.00D-07 GrdErr=1.00D-06 EigMax=2.50D+02 EigMin=1.00D-04
 Number of steps in this run=    100 maximum allowed number of steps=    100.
 GradGradGradGradGradGradGradGradGradGradGradGradGradGradGradGradGradGrad

 Leave Link  103 at Sat Jun 27 02:15:37 2020, MaxMem=   524288000 cpu:               0.1 elap:               0.0
 (Enter /home/ubuntu/g16/l202.exe)
                          Input orientation:                          
 ---------------------------------------------------------------------
 Center     Atomic      Atomic             Coordinates (Angstroms)
 Number     Number       Type             X           Y           Z
 ---------------------------------------------------------------------
      1          6           0       -1.464820   -1.552520   -1.429370
      2          6           0       -0.092370   -1.400140   -1.382330
      3          6           0        0.376790   -0.206100   -0.802790
      4          6           0       -0.380660    0.851700   -0.267070
      5          6           0       -1.753080    0.699660   -0.317630
      6          6           0       -2.265840   -0.500000   -0.895900
      7          1           0       -1.939150   -2.441590   -1.845550
      8          1           0        0.588770   -2.160160   -1.766880
      9          1           0        0.089690    1.738340    0.159340
     10          1           0       -2.438470    1.459560    0.058840
     11          7           0       -3.711630   -0.659790   -0.947010
     12          8           0       -4.325460    0.195560   -1.565090
     13          8           0       -4.176670   -1.629810   -0.373070
 ---------------------------------------------------------------------
                    Distance matrix (angstroms):
                    1          2          3          4          5
     1  C    0.000000
     2  C    1.381684   0.000000
     3  C    2.365793   1.407732   0.000000
     4  C    2.882120   2.529367   1.407006   0.000000
     5  C    2.528117   2.881094   2.364768   1.381741   0.000000
     6  C    1.426191   2.402257   2.660553   2.403419   1.427061
     7  H    1.090248   2.170204   3.383540   3.970674   3.498087
     8  H    2.168034   1.090624   2.189236   3.501503   3.970284
     9  H    3.971179   3.501421   2.188371   1.090498   2.168446
    10  H    3.497912   3.969766   3.382679   2.170321   1.090384
    11  N    2.465318   3.719767   4.116043   3.720522   2.465794
    12  O    3.355215   4.527550   4.780543   4.204381   2.903001
    13  O    2.911335   4.213414   4.790157   4.536388   3.362037
                    6          7          8          9         10
     6  C    0.000000
     7  H    2.185940   0.000000
     8  H    3.415192   2.544754   0.000000
     9  H    3.416463   5.060394   4.376952   0.000000
    10  H    2.186597   4.369782   5.059625   2.545469   0.000000
    11  N    1.455491   2.669058   4.627822   4.628722   2.669141
    12  O    2.274567   3.567589   5.453420   4.984714   2.792056
    13  O    2.280591   2.798871   4.993335   5.461659   3.571007
                   11         12         13
    11  N    0.000000
    12  O    1.220833   0.000000
    13  O    1.219265   2.185183   0.000000
 Stoichiometry    C6H4NO2(1+,3)
 Framework group  C1[X(C6H4NO2)]
 Deg. of freedom    33
 Full point group                 C1      NOp   1
 Largest Abelian subgroup         C1      NOp   1
 Largest concise Abelian subgroup C1      NOp   1
                         Standard orientation:                         
 ---------------------------------------------------------------------
 Center     Atomic      Atomic             Coordinates (Angstroms)
 Number     Number       Type             X           Y           Z
 ---------------------------------------------------------------------
      1          6           0        0.475642    1.246928    0.210175
      2          6           0        1.857326    1.247516    0.211873
      3          6           0        2.475559    0.000746   -0.000405
      4          6           0        1.858862   -1.245994   -0.212511
      5          6           0        0.477121   -1.245903   -0.210740
      6          6           0       -0.184993    0.000804   -0.001388
      7          1           0       -0.108302    2.156421    0.353252
      8          1           0        2.436427    2.159047    0.364237
      9          1           0        2.438946   -2.156543   -0.366095
     10          1           0       -0.106500   -2.155515   -0.355407
     11          7           0       -1.640484   -0.000071   -0.001476
     12          8           0       -2.177647   -0.709612    0.834252
     13          8           0       -2.189138    0.706175   -0.830212
 ---------------------------------------------------------------------
 Rotational constants (GHZ):           3.7659273           1.2992291           1.0667398
 Leave Link  202 at Sat Jun 27 02:15:37 2020, MaxMem=   524288000 cpu:               0.0 elap:               0.0
 (Enter /home/ubuntu/g16/l301.exe)
 Standard basis: Aug-CC-pVDZ (5D, 7F)
 Ernie: Thresh=  0.10000D-02 Tol=  0.10000D-05 Strict=F.
 Ernie:  18 primitive shells out of 253 were deleted.
 There are   261 symmetry adapted cartesian basis functions of A   symmetry.
 There are   243 symmetry adapted basis functions of A   symmetry.
   243 basis functions,   431 primitive gaussians,   261 cartesian basis functions
    32 alpha electrons       30 beta electrons
       nuclear repulsion energy       400.0566657694 Hartrees.
 IExCor=  402 DFT=T Ex+Corr=B3LYP ExCW=0 ScaHFX=  0.200000
 ScaDFX=  0.800000  0.720000  1.000000  0.810000 ScalE2=  1.000000  1.000000
 IRadAn=      5 IRanWt=     -1 IRanGd=            0 ICorTp=0 IEmpDi=  4
 NAtoms=   13 NActive=   13 NUniq=   13 SFac= 1.00D+00 NAtFMM=   60 NAOKFM=F Big=F
 Integral buffers will be    131072 words long.
 Raffenetti 2 integral format.
 Two-electron integral symmetry is turned on.
 Leave Link  301 at Sat Jun 27 02:15:37 2020, MaxMem=   524288000 cpu:               0.2 elap:               0.0
 (Enter /home/ubuntu/g16/l302.exe)
 NPDir=0 NMtPBC=     1 NCelOv=     1 NCel=       1 NClECP=     1 NCelD=      1
         NCelK=      1 NCelE2=     1 NClLst=     1 CellRange=     0.0.
 One-electron integrals computed using PRISM.
 One-electron integral symmetry used in STVInt
 NBasis=   243 RedAO= T EigKep=  4.35D-06  NBF=   243
 NBsUse=   243 1.00D-06 EigRej= -1.00D+00 NBFU=   243
 Precomputing XC quadrature grid using
 IXCGrd= 4 IRadAn=           5 IRanWt=          -1 IRanGd=           0 AccXCQ= 0.00D+00.
 Generated NRdTot=       0 NPtTot=           0 NUsed=           0 NTot=          32
 NSgBfM=   261   261   261   261   261 MxSgAt=    13 MxSgA2=    13.
 Leave Link  302 at Sat Jun 27 02:15:37 2020, MaxMem=   524288000 cpu:               2.0 elap:               0.3
 (Enter /home/ubuntu/g16/l303.exe)
 DipDrv:  MaxL=1.
 Leave Link  303 at Sat Jun 27 02:15:37 2020, MaxMem=   524288000 cpu:               0.3 elap:               0.0
 (Enter /home/ubuntu/g16/l401.exe)
 ExpMin= 2.97D-02 ExpMax= 1.17D+04 ExpMxC= 4.01D+02 IAcc=3 IRadAn=         5 AccDes= 0.00D+00
 Harris functional with IExCor=  402 and IRadAn=       5 diagonalized for initial guess.
 HarFok:  IExCor=  402 AccDes= 0.00D+00 IRadAn=         5 IDoV= 1 UseB2=F ITyADJ=14
 ICtDFT=  3500011 ScaDFX=  1.000000  1.000000  1.000000  1.000000
 FoFCou: FMM=F IPFlag=           0 FMFlag=      100000 FMFlg1=           0
         NFxFlg=           0 DoJE=T BraDBF=F KetDBF=T FulRan=T
         wScrn=  0.000000 ICntrl=       500 IOpCl=  0 I1Cent=   200000004 NGrid=           0
         NMat0=    1 NMatS0=      1 NMatT0=    0 NMatD0=    1 NMtDS0=    0 NMtDT0=    0
 Petite list used in FoFCou.
 Harris En= -435.785094611333    
 JPrj=0 DoOrth=F DoCkMO=F.
 Initial guess <Sx>= 0.0000 <Sy>= 0.0000 <Sz>= 1.0000 <S**2>= 2.0000 S= 1.0000
 Leave Link  401 at Sat Jun 27 02:15:39 2020, MaxMem=   524288000 cpu:              13.7 elap:               2.0
 (Enter /home/ubuntu/g16/l502.exe)
 Integral symmetry usage will be decided dynamically.
 UHF open shell SCF:
 Using DIIS extrapolation, IDIIS=  1040.
 NGot=   524288000 LenX=   524147472 LenY=   524078910
 Requested convergence on RMS density matrix=1.00D-08 within 128 cycles.
 Requested convergence on MAX density matrix=1.00D-06.
 Requested convergence on             energy=1.00D-06.
 No special actions if energy rises.
 Fock matrices will be formed incrementally for  20 cycles.

 Cycle   1  Pass 1  IDiag  1:
 FoFJK:  IHMeth= 1 ICntrl=       0 DoSepK=F KAlg= 0 I1Cent=           0 FoldK=F
 IRaf= 990000000 NMat=       1 IRICut=       1 DoRegI=T DoRafI=F ISym2E= 0 IDoP0=0 IntGTp=1.
 FoFCou: FMM=F IPFlag=           0 FMFlag=      100000 FMFlg1=           0
         NFxFlg=           0 DoJE=F BraDBF=F KetDBF=F FulRan=T
         wScrn=  0.000000 ICntrl=         0 IOpCl=  1 I1Cent=           0 NGrid=           0
         NMat0=    1 NMatS0=      1 NMatT0=    0 NMatD0=    1 NMtDS0=    0 NMtDT0=    0
 Symmetry not used in FoFCou.
 E= -435.559905543269    
 DIIS: error= 2.49D-02 at cycle   1 NSaved=   1.
 NSaved= 1 IEnMin= 1 EnMin= -435.559905543269     IErMin= 1 ErrMin= 2.49D-02
 ErrMax= 2.49D-02  0.00D+00 EMaxC= 1.00D-01 BMatC= 9.49D-01 BMatP= 9.49D-01
 IDIUse=3 WtCom= 7.51D-01 WtEn= 2.49D-01
 Coeff-Com:  0.100D+01
 Coeff-En:   0.100D+01
 Coeff:      0.100D+01
 Gap=     0.113 Goal=   None    Shift=    0.000
 Gap=     0.123 Goal=   None    Shift=    0.000
 GapD=    0.113 DampG=1.000 DampE=0.500 DampFc=0.5000 IDamp=-1.
 Damping current iteration by 5.00D-01
 RMSDP=3.07D-02 MaxDP=1.24D+00              OVMax= 2.68D-01

 Cycle   2  Pass 1  IDiag  1:
 RMSU=  7.26D-03    CP:  7.99D-01
 E= -435.582620886355     Delta-E=       -0.022715343085 Rises=F Damp=T
 DIIS: error= 1.13D-02 at cycle   2 NSaved=   2.
 NSaved= 2 IEnMin= 2 EnMin= -435.582620886355     IErMin= 2 ErrMin= 1.13D-02
 ErrMax= 1.13D-02  0.00D+00 EMaxC= 1.00D-01 BMatC= 2.40D-01 BMatP= 9.49D-01
 IDIUse=3 WtCom= 8.87D-01 WtEn= 1.13D-01
 Coeff-Com:  0.309D+00 0.691D+00
 Coeff-En:   0.454D+00 0.546D+00
 Coeff:      0.325D+00 0.675D+00
 Gap=     0.171 Goal=   None    Shift=    0.000
 Gap=     0.054 Goal=   None    Shift=    0.000
 RMSDP=1.18D-02 MaxDP=4.89D-01 DE=-2.27D-02 OVMax= 2.75D-01

 Cycle   3  Pass 1  IDiag  1:
 RMSU=  4.65D-03    CP:  6.42D-01  1.38D+00
 E= -435.751924150818     Delta-E=       -0.169303264463 Rises=F Damp=F
 DIIS: error= 5.59D-03 at cycle   3 NSaved=   3.
 NSaved= 3 IEnMin= 3 EnMin= -435.751924150818     IErMin= 3 ErrMin= 5.59D-03
 ErrMax= 5.59D-03  0.00D+00 EMaxC= 1.00D-01 BMatC= 5.23D-02 BMatP= 2.40D-01
 IDIUse=3 WtCom= 9.44D-01 WtEn= 5.59D-02
 Coeff-Com:  0.125D+00 0.336D+00 0.539D+00
 Coeff-En:   0.000D+00 0.000D+00 0.100D+01
 Coeff:      0.118D+00 0.317D+00 0.565D+00
 Gap=     0.182 Goal=   None    Shift=    0.000
 Gap=     0.079 Goal=   None    Shift=    0.000
 RMSDP=2.26D-03 MaxDP=1.46D-01 DE=-1.69D-01 OVMax= 9.28D-02

 Cycle   4  Pass 1  IDiag  1:
 RMSU=  1.82D-03    CP:  6.51D-01  1.30D+00  7.68D-01
 E= -435.758396800079     Delta-E=       -0.006472649261 Rises=F Damp=F
 DIIS: error= 3.92D-03 at cycle   4 NSaved=   4.
 NSaved= 4 IEnMin= 4 EnMin= -435.758396800079     IErMin= 4 ErrMin= 3.92D-03
 ErrMax= 3.92D-03  0.00D+00 EMaxC= 1.00D-01 BMatC= 2.87D-02 BMatP= 5.23D-02
 IDIUse=3 WtCom= 9.61D-01 WtEn= 3.92D-02
 Coeff-Com:  0.220D-01 0.559D-01 0.414D+00 0.508D+00
 Coeff-En:   0.000D+00 0.000D+00 0.381D+00 0.619D+00
 Coeff:      0.212D-01 0.537D-01 0.412D+00 0.513D+00
 Gap=     0.183 Goal=   None    Shift=    0.000
 Gap=     0.080 Goal=   None    Shift=    0.000
 RMSDP=8.18D-04 MaxDP=4.42D-02 DE=-6.47D-03 OVMax= 6.11D-02

 Cycle   5  Pass 1  IDiag  1:
 RMSU=  4.64D-04    CP:  6.51D-01  1.30D+00  8.39D-01  6.77D-01
 E= -435.764854526229     Delta-E=       -0.006457726150 Rises=F Damp=F
 DIIS: error= 1.59D-03 at cycle   5 NSaved=   5.
 NSaved= 5 IEnMin= 5 EnMin= -435.764854526229     IErMin= 5 ErrMin= 1.59D-03
 ErrMax= 1.59D-03  0.00D+00 EMaxC= 1.00D-01 BMatC= 5.77D-03 BMatP= 2.87D-02
 IDIUse=3 WtCom= 9.84D-01 WtEn= 1.59D-02
 Coeff-Com:  0.832D-02 0.200D-01 0.277D+00 0.394D+00 0.301D+00
 Coeff-En:   0.000D+00 0.000D+00 0.000D+00 0.735D-01 0.927D+00
 Coeff:      0.819D-02 0.197D-01 0.273D+00 0.388D+00 0.311D+00
 Gap=     0.185 Goal=   None    Shift=    0.000
 Gap=     0.076 Goal=   None    Shift=    0.000
 RMSDP=2.25D-04 MaxDP=8.64D-03 DE=-6.46D-03 OVMax= 2.75D-02

 Cycle   6  Pass 1  IDiag  1:
 RMSU=  2.08D-04    CP:  6.50D-01  1.31D+00  8.47D-01  6.62D-01  9.21D-01
 E= -435.765786803893     Delta-E=       -0.000932277664 Rises=F Damp=F
 DIIS: error= 7.17D-04 at cycle   6 NSaved=   6.
 NSaved= 6 IEnMin= 6 EnMin= -435.765786803893     IErMin= 6 ErrMin= 7.17D-04
 ErrMax= 7.17D-04  0.00D+00 EMaxC= 1.00D-01 BMatC= 1.31D-03 BMatP= 5.77D-03
 IDIUse=3 WtCom= 9.93D-01 WtEn= 7.17D-03
 Coeff-Com: -0.290D-02-0.711D-02 0.667D-01 0.146D+00 0.298D+00 0.499D+00
 Coeff-En:   0.000D+00 0.000D+00 0.000D+00 0.000D+00 0.244D+00 0.756D+00
 Coeff:     -0.288D-02-0.706D-02 0.662D-01 0.144D+00 0.298D+00 0.501D+00
 Gap=     0.187 Goal=   None    Shift=    0.000
 Gap=     0.078 Goal=   None    Shift=    0.000
 RMSDP=1.58D-04 MaxDP=4.43D-03 DE=-9.32D-04 OVMax= 1.03D-02

 Cycle   7  Pass 1  IDiag  1:
 RMSU=  1.23D-04    CP:  6.49D-01  1.31D+00  8.48D-01  6.75D-01  9.97D-01
                    CP:  9.60D-01
 E= -435.766060579508     Delta-E=       -0.000273775615 Rises=F Damp=F
 DIIS: error= 2.31D-04 at cycle   7 NSaved=   7.
 NSaved= 7 IEnMin= 7 EnMin= -435.766060579508     IErMin= 7 ErrMin= 2.31D-04
 ErrMax= 2.31D-04  0.00D+00 EMaxC= 1.00D-01 BMatC= 8.77D-05 BMatP= 1.31D-03
 IDIUse=3 WtCom= 9.98D-01 WtEn= 2.31D-03
 Coeff-Com: -0.262D-02-0.663D-02-0.101D-01 0.257D-01 0.106D+00 0.261D+00
 Coeff-Com:  0.626D+00
 Coeff-En:   0.000D+00 0.000D+00 0.000D+00 0.000D+00 0.000D+00 0.000D+00
 Coeff-En:   0.100D+01
 Coeff:     -0.261D-02-0.661D-02-0.101D-01 0.256D-01 0.106D+00 0.261D+00
 Coeff:      0.627D+00
 Gap=     0.186 Goal=   None    Shift=    0.000
 Gap=     0.078 Goal=   None    Shift=    0.000
 RMSDP=7.32D-05 MaxDP=5.97D-03 DE=-2.74D-04 OVMax= 1.07D-02

 Cycle   8  Pass 1  IDiag  1:
 RMSU=  6.90D-05    CP:  6.49D-01  1.31D+00  8.50D-01  6.83D-01  1.01D+00
                    CP:  9.73D-01  1.02D+00
 E= -435.766084935363     Delta-E=       -0.000024355854 Rises=F Damp=F
 DIIS: error= 1.70D-04 at cycle   8 NSaved=   8.
 NSaved= 8 IEnMin= 8 EnMin= -435.766084935363     IErMin= 8 ErrMin= 1.70D-04
 ErrMax= 1.70D-04  0.00D+00 EMaxC= 1.00D-01 BMatC= 5.04D-05 BMatP= 8.77D-05
 IDIUse=3 WtCom= 9.98D-01 WtEn= 1.70D-03
 Coeff-Com: -0.122D-02-0.201D-02-0.245D-01-0.137D-01-0.830D-02 0.386D-01
 Coeff-Com:  0.475D+00 0.537D+00
 Coeff-En:   0.000D+00 0.000D+00 0.000D+00 0.000D+00 0.000D+00 0.000D+00
 Coeff-En:   0.149D+00 0.851D+00
 Coeff:     -0.121D-02-0.201D-02-0.244D-01-0.137D-01-0.829D-02 0.385D-01
 Coeff:      0.474D+00 0.537D+00
 Gap=     0.187 Goal=   None    Shift=    0.000
 Gap=     0.079 Goal=   None    Shift=    0.000
 RMSDP=4.96D-05 MaxDP=1.83D-03 DE=-2.44D-05 OVMax= 1.95D-03

 Cycle   9  Pass 1  IDiag  1:
 RMSU=  3.26D-05    CP:  6.49D-01  1.31D+00  8.51D-01  6.93D-01  1.06D+00
                    CP:  1.05D+00  1.16D+00  9.13D-01
 E= -435.766098919324     Delta-E=       -0.000013983962 Rises=F Damp=F
 DIIS: error= 1.03D-04 at cycle   9 NSaved=   9.
 NSaved= 9 IEnMin= 9 EnMin= -435.766098919324     IErMin= 9 ErrMin= 1.03D-04
 ErrMax= 1.03D-04  0.00D+00 EMaxC= 1.00D-01 BMatC= 9.20D-06 BMatP= 5.04D-05
 IDIUse=3 WtCom= 9.99D-01 WtEn= 1.03D-03
 Coeff-Com:  0.609D-04 0.775D-03-0.161D-01-0.175D-01-0.503D-01-0.771D-01
 Coeff-Com:  0.157D+00 0.361D+00 0.642D+00
 Coeff-En:   0.000D+00 0.000D+00 0.000D+00 0.000D+00 0.000D+00 0.000D+00
 Coeff-En:   0.000D+00 0.000D+00 0.100D+01
 Coeff:      0.608D-04 0.774D-03-0.161D-01-0.175D-01-0.502D-01-0.770D-01
 Coeff:      0.157D+00 0.361D+00 0.642D+00
 Gap=     0.187 Goal=   None    Shift=    0.000
 Gap=     0.079 Goal=   None    Shift=    0.000
 RMSDP=2.91D-05 MaxDP=1.58D-03 DE=-1.40D-05 OVMax= 2.81D-03

 Cycle  10  Pass 1  IDiag  1:
 RMSU=  1.51D-05    CP:  6.48D-01  1.31D+00  8.49D-01  6.99D-01  1.07D+00
                    CP:  1.09D+00  1.26D+00  1.00D+00  9.39D-01
 E= -435.766102721994     Delta-E=       -0.000003802670 Rises=F Damp=F
 DIIS: error= 2.58D-05 at cycle  10 NSaved=  10.
 NSaved=10 IEnMin=10 EnMin= -435.766102721994     IErMin=10 ErrMin= 2.58D-05
 ErrMax= 2.58D-05  0.00D+00 EMaxC= 1.00D-01 BMatC= 1.17D-06 BMatP= 9.20D-06
 IDIUse=1 WtCom= 1.00D+00 WtEn= 0.00D+00
 Coeff-Com:  0.225D-03 0.618D-03-0.244D-02-0.289D-02-0.180D-01-0.350D-01
 Coeff-Com: -0.333D-02 0.151D-01 0.268D+00 0.778D+00
 Coeff:      0.225D-03 0.618D-03-0.244D-02-0.289D-02-0.180D-01-0.350D-01
 Coeff:     -0.333D-02 0.151D-01 0.268D+00 0.778D+00
 Gap=     0.187 Goal=   None    Shift=    0.000
 Gap=     0.079 Goal=   None    Shift=    0.000
 RMSDP=9.42D-06 MaxDP=3.86D-04 DE=-3.80D-06 OVMax= 6.87D-04

 Cycle  11  Pass 1  IDiag  1:
 RMSU=  5.42D-06    CP:  6.48D-01  1.31D+00  8.50D-01  6.99D-01  1.08D+00
                    CP:  1.09D+00  1.30D+00  1.07D+00  1.03D+00  9.91D-01
 E= -435.766103124975     Delta-E=       -0.000000402981 Rises=F Damp=F
 DIIS: error= 1.85D-05 at cycle  11 NSaved=  11.
 NSaved=11 IEnMin=11 EnMin= -435.766103124975     IErMin=11 ErrMin= 1.85D-05
 ErrMax= 1.85D-05  0.00D+00 EMaxC= 1.00D-01 BMatC= 2.59D-07 BMatP= 1.17D-06
 IDIUse=1 WtCom= 1.00D+00 WtEn= 0.00D+00
 Coeff-Com:  0.575D-04 0.892D-04 0.186D-02 0.308D-02 0.240D-02 0.209D-02
 Coeff-Com: -0.195D-01-0.878D-01 0.506D-02 0.262D+00 0.831D+00
 Coeff:      0.575D-04 0.892D-04 0.186D-02 0.308D-02 0.240D-02 0.209D-02
 Coeff:     -0.195D-01-0.878D-01 0.506D-02 0.262D+00 0.831D+00
 Gap=     0.187 Goal=   None    Shift=    0.000
 Gap=     0.079 Goal=   None    Shift=    0.000
 RMSDP=4.24D-06 MaxDP=3.06D-04 DE=-4.03D-07 OVMax= 3.09D-04

 Cycle  12  Pass 1  IDiag  1:
 RMSU=  2.36D-06    CP:  6.48D-01  1.31D+00  8.49D-01  7.00D-01  1.08D+00
                    CP:  1.10D+00  1.31D+00  1.07D+00  1.08D+00  1.07D+00
                    CP:  1.17D+00
 E= -435.766103217632     Delta-E=       -0.000000092657 Rises=F Damp=F
 DIIS: error= 5.44D-06 at cycle  12 NSaved=  12.
 NSaved=12 IEnMin=12 EnMin= -435.766103217632     IErMin=12 ErrMin= 5.44D-06
 ErrMax= 5.44D-06  0.00D+00 EMaxC= 1.00D-01 BMatC= 5.09D-08 BMatP= 2.59D-07
 IDIUse=1 WtCom= 1.00D+00 WtEn= 0.00D+00
 Coeff-Com: -0.224D-04-0.236D-04 0.705D-03 0.148D-02 0.236D-02 0.474D-02
 Coeff-Com: -0.106D-02-0.397D-01-0.167D-01-0.274D-01 0.223D+00 0.853D+00
 Coeff:     -0.224D-04-0.236D-04 0.705D-03 0.148D-02 0.236D-02 0.474D-02
 Coeff:     -0.106D-02-0.397D-01-0.167D-01-0.274D-01 0.223D+00 0.853D+00
 Gap=     0.187 Goal=   None    Shift=    0.000
 Gap=     0.079 Goal=   None    Shift=    0.000
 RMSDP=1.79D-06 MaxDP=5.30D-05 DE=-9.27D-08 OVMax= 9.91D-05

 Cycle  13  Pass 1  IDiag  1:
 RMSU=  1.09D-06    CP:  6.48D-01  1.31D+00  8.49D-01  7.01D-01  1.08D+00
                    CP:  1.10D+00  1.31D+00  1.07D+00  1.11D+00  1.09D+00
                    CP:  1.33D+00  1.04D+00
 E= -435.766103237686     Delta-E=       -0.000000020054 Rises=F Damp=F
 DIIS: error= 2.11D-06 at cycle  13 NSaved=  13.
 NSaved=13 IEnMin=13 EnMin= -435.766103237686     IErMin=13 ErrMin= 2.11D-06
 ErrMax= 2.11D-06  0.00D+00 EMaxC= 1.00D-01 BMatC= 9.03D-09 BMatP= 5.09D-08
 IDIUse=1 WtCom= 1.00D+00 WtEn= 0.00D+00
 Coeff-Com: -0.271D-04-0.307D-04 0.377D-04 0.331D-03 0.799D-03 0.252D-02
 Coeff-Com:  0.345D-02-0.739D-02-0.956D-02-0.647D-01-0.480D-01 0.427D+00
 Coeff-Com:  0.695D+00
 Coeff:     -0.271D-04-0.307D-04 0.377D-04 0.331D-03 0.799D-03 0.252D-02
 Coeff:      0.345D-02-0.739D-02-0.956D-02-0.647D-01-0.480D-01 0.427D+00
 Coeff:      0.695D+00
 Gap=     0.187 Goal=   None    Shift=    0.000
 Gap=     0.079 Goal=   None    Shift=    0.000
 RMSDP=9.88D-07 MaxDP=5.92D-05 DE=-2.01D-08 OVMax= 6.83D-05

 Cycle  14  Pass 1  IDiag  1:
 RMSU=  5.19D-07    CP:  6.48D-01  1.31D+00  8.49D-01  7.01D-01  1.08D+00
                    CP:  1.10D+00  1.31D+00  1.07D+00  1.11D+00  1.10D+00
                    CP:  1.39D+00  1.24D+00  1.04D+00
 E= -435.766103243032     Delta-E=       -0.000000005346 Rises=F Damp=F
 DIIS: error= 1.42D-06 at cycle  14 NSaved=  14.
 NSaved=14 IEnMin=14 EnMin= -435.766103243032     IErMin=14 ErrMin= 1.42D-06
 ErrMax= 1.42D-06  0.00D+00 EMaxC= 1.00D-01 BMatC= 2.04D-09 BMatP= 9.03D-09
 IDIUse=1 WtCom= 1.00D+00 WtEn= 0.00D+00
 Coeff-Com: -0.390D-05-0.250D-05-0.176D-03-0.234D-03-0.504D-03-0.167D-03
 Coeff-Com:  0.156D-02 0.778D-02 0.124D-02-0.137D-01-0.772D-01-0.853D-01
 Coeff-Com:  0.268D+00 0.899D+00
 Coeff:     -0.390D-05-0.250D-05-0.176D-03-0.234D-03-0.504D-03-0.167D-03
 Coeff:      0.156D-02 0.778D-02 0.124D-02-0.137D-01-0.772D-01-0.853D-01
 Coeff:      0.268D+00 0.899D+00
 Gap=     0.187 Goal=   None    Shift=    0.000
 Gap=     0.079 Goal=   None    Shift=    0.000
 RMSDP=5.77D-07 MaxDP=2.12D-05 DE=-5.35D-09 OVMax= 5.78D-05

 Cycle  15  Pass 1  IDiag  1:
 RMSU=  3.19D-07    CP:  6.48D-01  1.31D+00  8.49D-01  7.01D-01  1.08D+00
                    CP:  1.10D+00  1.31D+00  1.07D+00  1.12D+00  1.10D+00
                    CP:  1.42D+00  1.32D+00  1.37D+00  1.16D+00
 E= -435.766103245581     Delta-E=       -0.000000002549 Rises=F Damp=F
 DIIS: error= 9.86D-07 at cycle  15 NSaved=  15.
 NSaved=15 IEnMin=15 EnMin= -435.766103245581     IErMin=15 ErrMin= 9.86D-07
 ErrMax= 9.86D-07  0.00D+00 EMaxC= 1.00D-01 BMatC= 9.27D-10 BMatP= 2.04D-09
 IDIUse=1 WtCom= 1.00D+00 WtEn= 0.00D+00
 Coeff-Com:  0.614D-05 0.790D-05-0.101D-03-0.211D-03-0.588D-03-0.661D-03
 Coeff-Com: -0.341D-03 0.621D-02 0.321D-02 0.115D-01-0.205D-01-0.161D+00
 Coeff-Com: -0.520D-01 0.381D+00 0.834D+00
 Coeff:      0.614D-05 0.790D-05-0.101D-03-0.211D-03-0.588D-03-0.661D-03
 Coeff:     -0.341D-03 0.621D-02 0.321D-02 0.115D-01-0.205D-01-0.161D+00
 Coeff:     -0.520D-01 0.381D+00 0.834D+00
 Gap=     0.187 Goal=   None    Shift=    0.000
 Gap=     0.079 Goal=   None    Shift=    0.000
 RMSDP=3.56D-07 MaxDP=1.11D-05 DE=-2.55D-09 OVMax= 4.39D-05

 Cycle  16  Pass 1  IDiag  1:
 RMSU=  2.05D-07    CP:  6.48D-01  1.31D+00  8.49D-01  7.01D-01  1.08D+00
                    CP:  1.10D+00  1.31D+00  1.07D+00  1.12D+00  1.10D+00
                    CP:  1.43D+00  1.36D+00  1.51D+00  1.53D+00  1.29D+00
 E= -435.766103246908     Delta-E=       -0.000000001327 Rises=F Damp=F
 DIIS: error= 7.89D-07 at cycle  16 NSaved=  16.
 NSaved=16 IEnMin=16 EnMin= -435.766103246908     IErMin=16 ErrMin= 7.89D-07
 ErrMax= 7.89D-07  0.00D+00 EMaxC= 1.00D-01 BMatC= 5.46D-10 BMatP= 9.27D-10
 IDIUse=1 WtCom= 1.00D+00 WtEn= 0.00D+00
 Coeff-Com:  0.554D-05 0.330D-05 0.621D-04 0.286D-04-0.528D-04-0.219D-04
 Coeff-Com: -0.155D-02-0.123D-02-0.346D-04 0.132D-01 0.410D-01-0.317D-01
 Coeff-Com: -0.194D+00-0.483D+00 0.484D+00 0.117D+01
 Coeff:      0.554D-05 0.330D-05 0.621D-04 0.286D-04-0.528D-04-0.219D-04
 Coeff:     -0.155D-02-0.123D-02-0.346D-04 0.132D-01 0.410D-01-0.317D-01
 Coeff:     -0.194D+00-0.483D+00 0.484D+00 0.117D+01
 Gap=     0.187 Goal=   None    Shift=    0.000
 Gap=     0.079 Goal=   None    Shift=    0.000
 RMSDP=4.73D-07 MaxDP=1.64D-05 DE=-1.33D-09 OVMax= 5.97D-05

 Cycle  17  Pass 1  IDiag  1:
 RMSU=  1.11D-07    CP:  6.48D-01  1.31D+00  8.49D-01  7.01D-01  1.08D+00
                    CP:  1.10D+00  1.31D+00  1.07D+00  1.12D+00  1.10D+00
                    CP:  1.45D+00  1.40D+00  1.71D+00  1.87D+00  2.27D+00
                    CP:  1.54D+00
 E= -435.766103248112     Delta-E=       -0.000000001205 Rises=F Damp=F
 DIIS: error= 3.62D-07 at cycle  17 NSaved=  17.
 NSaved=17 IEnMin=17 EnMin= -435.766103248112     IErMin=17 ErrMin= 3.62D-07
 ErrMax= 3.62D-07  0.00D+00 EMaxC= 1.00D-01 BMatC= 1.30D-10 BMatP= 5.46D-10
 IDIUse=1 WtCom= 1.00D+00 WtEn= 0.00D+00
 Coeff-Com: -0.278D-05-0.263D-05 0.377D-04 0.765D-04 0.190D-03 0.379D-03
 Coeff-Com: -0.389D-04-0.185D-02-0.147D-02-0.511D-02 0.541D-02 0.690D-01
 Coeff-Com:  0.485D-01-0.153D+00-0.374D+00-0.461D-01 0.146D+01
 Coeff:     -0.278D-05-0.263D-05 0.377D-04 0.765D-04 0.190D-03 0.379D-03
 Coeff:     -0.389D-04-0.185D-02-0.147D-02-0.511D-02 0.541D-02 0.690D-01
 Coeff:      0.485D-01-0.153D+00-0.374D+00-0.461D-01 0.146D+01
 Gap=     0.187 Goal=   None    Shift=    0.000
 Gap=     0.079 Goal=   None    Shift=    0.000
 RMSDP=3.09D-07 MaxDP=1.14D-05 DE=-1.20D-09 OVMax= 3.80D-05

 Cycle  18  Pass 1  IDiag  1:
 RMSU=  7.10D-08    CP:  6.48D-01  1.31D+00  8.49D-01  7.01D-01  1.08D+00
                    CP:  1.10D+00  1.31D+00  1.07D+00  1.12D+00  1.10D+00
                    CP:  1.45D+00  1.42D+00  1.80D+00  2.09D+00  2.88D+00
                    CP:  2.23D+00  1.70D+00
 E= -435.766103248464     Delta-E=       -0.000000000352 Rises=F Damp=F
 DIIS: error= 1.85D-07 at cycle  18 NSaved=  18.
 NSaved=18 IEnMin=18 EnMin= -435.766103248464     IErMin=18 ErrMin= 1.85D-07
 ErrMax= 1.85D-07  0.00D+00 EMaxC= 1.00D-01 BMatC= 4.16D-11 BMatP= 1.30D-10
 IDIUse=1 WtCom= 1.00D+00 WtEn= 0.00D+00
 Coeff-Com: -0.266D-05-0.218D-05 0.940D-05 0.377D-04 0.111D-03 0.239D-03
 Coeff-Com:  0.277D-03-0.753D-03-0.836D-03-0.563D-02-0.582D-02 0.469D-01
 Coeff-Com:  0.709D-01 0.200D-01-0.325D+00-0.253D+00 0.847D+00 0.606D+00
 Coeff:     -0.266D-05-0.218D-05 0.940D-05 0.377D-04 0.111D-03 0.239D-03
 Coeff:      0.277D-03-0.753D-03-0.836D-03-0.563D-02-0.582D-02 0.469D-01
 Coeff:      0.709D-01 0.200D-01-0.325D+00-0.253D+00 0.847D+00 0.606D+00
 Gap=     0.187 Goal=   None    Shift=    0.000
 Gap=     0.079 Goal=   None    Shift=    0.000
 RMSDP=7.55D-08 MaxDP=2.41D-06 DE=-3.52D-10 OVMax= 7.46D-06

 Cycle  19  Pass 1  IDiag  1:
 RMSU=  4.59D-08    CP:  6.48D-01  1.31D+00  8.49D-01  7.01D-01  1.08D+00
                    CP:  1.10D+00  1.31D+00  1.07D+00  1.12D+00  1.10D+00
                    CP:  1.45D+00  1.42D+00  1.81D+00  2.12D+00  2.97D+00
                    CP:  2.36D+00  2.01D+00  8.80D-01
 E= -435.766103248513     Delta-E=       -0.000000000049 Rises=F Damp=F
 DIIS: error= 8.60D-08 at cycle  19 NSaved=  19.
 NSaved=19 IEnMin=19 EnMin= -435.766103248513     IErMin=19 ErrMin= 8.60D-08
 ErrMax= 8.60D-08  0.00D+00 EMaxC= 1.00D-01 BMatC= 8.74D-12 BMatP= 4.16D-11
 IDIUse=1 WtCom= 1.00D+00 WtEn= 0.00D+00
 Coeff-Com: -0.263D-07-0.180D-06-0.124D-04-0.166D-04-0.353D-04-0.446D-04
 Coeff-Com:  0.180D-03 0.464D-03 0.236D-03-0.681D-03-0.632D-02-0.708D-02
 Coeff-Com:  0.137D-01 0.907D-01-0.275D-01-0.109D+00-0.219D+00 0.282D+00
 Coeff-Com:  0.982D+00
 Coeff:     -0.263D-07-0.180D-06-0.124D-04-0.166D-04-0.353D-04-0.446D-04
 Coeff:      0.180D-03 0.464D-03 0.236D-03-0.681D-03-0.632D-02-0.708D-02
 Coeff:      0.137D-01 0.907D-01-0.275D-01-0.109D+00-0.219D+00 0.282D+00
 Coeff:      0.982D+00
 Gap=     0.187 Goal=   None    Shift=    0.000
 Gap=     0.079 Goal=   None    Shift=    0.000
 RMSDP=5.84D-08 MaxDP=2.34D-06 DE=-4.93D-11 OVMax= 6.58D-06

 Cycle  20  Pass 1  IDiag  1:
 RMSU=  2.50D-08    CP:  6.48D-01  1.31D+00  8.49D-01  7.01D-01  1.08D+00
                    CP:  1.10D+00  1.31D+00  1.07D+00  1.12D+00  1.10D+00
                    CP:  1.45D+00  1.42D+00  1.82D+00  2.15D+00  3.00D+00
                    CP:  2.48D+00  2.20D+00  1.28D+00  1.27D+00
 E= -435.766103248522     Delta-E=       -0.000000000009 Rises=F Damp=F
 DIIS: error= 6.61D-08 at cycle  20 NSaved=  20.
 NSaved=20 IEnMin=20 EnMin= -435.766103248522     IErMin=20 ErrMin= 6.61D-08
 ErrMax= 6.61D-08  0.00D+00 EMaxC= 1.00D-01 BMatC= 2.19D-12 BMatP= 8.74D-12
 IDIUse=1 WtCom= 1.00D+00 WtEn= 0.00D+00
 Coeff-Com:  0.482D-06 0.143D-06-0.281D-05-0.687D-05-0.273D-04-0.431D-04
 Coeff-Com:  0.565D-06 0.968D-04 0.185D-03 0.955D-03 0.485D-03-0.793D-02
 Coeff-Com: -0.141D-01 0.120D-01 0.363D-01 0.479D-01-0.149D+00-0.151D+00
 Coeff-Com:  0.169D+00 0.105D+01
 Coeff:      0.482D-06 0.143D-06-0.281D-05-0.687D-05-0.273D-04-0.431D-04
 Coeff:      0.565D-06 0.968D-04 0.185D-03 0.955D-03 0.485D-03-0.793D-02
 Coeff:     -0.141D-01 0.120D-01 0.363D-01 0.479D-01-0.149D+00-0.151D+00
 Coeff:      0.169D+00 0.105D+01
 Gap=     0.187 Goal=   None    Shift=    0.000
 Gap=     0.079 Goal=   None    Shift=    0.000
 RMSDP=2.46D-08 MaxDP=7.40D-07 DE=-8.75D-12 OVMax= 2.72D-06

 Cycle  21  Pass 1  IDiag  1:
 Restarting incremental Fock formation.
 E= -435.766103248519     Delta-E=        0.000000000004 Rises=F Damp=F
 DIIS: error= 4.20D-08 at cycle  21 NSaved=  20.
 NSaved=20 IEnMin=19 EnMin= -435.766103248522     IErMin=20 ErrMin= 4.20D-08
 ErrMax= 4.20D-08  0.00D+00 EMaxC= 1.00D-01 BMatC= 6.29D-13 BMatP= 2.19D-12
 IDIUse=1 WtCom= 1.00D+00 WtEn= 0.00D+00
 Coeff-Com:  0.225D-06 0.288D-05 0.499D-05 0.816D-05 0.146D-04-0.270D-04
 Coeff-Com: -0.131D-03-0.573D-04-0.264D-04 0.953D-03 0.294D-02-0.270D-02
 Coeff-Com: -0.112D-01-0.165D-01 0.207D-01 0.751D-01-0.690D-01-0.110D+00
 Coeff-Com: -0.347D+00 0.146D+01
 Coeff:      0.225D-06 0.288D-05 0.499D-05 0.816D-05 0.146D-04-0.270D-04
 Coeff:     -0.131D-03-0.573D-04-0.264D-04 0.953D-03 0.294D-02-0.270D-02
 Coeff:     -0.112D-01-0.165D-01 0.207D-01 0.751D-01-0.690D-01-0.110D+00
 Coeff:     -0.347D+00 0.146D+01
 Gap=     0.187 Goal=   None    Shift=    0.000
 Gap=     0.079 Goal=   None    Shift=    0.000
 RMSDP=1.96D-08 MaxDP=5.83D-07 DE= 3.52D-12 OVMax= 2.59D-06

 Cycle  22  Pass 1  IDiag  1:
 RMSU=  1.96D-08    CP:  1.00D+00
 E= -435.766103248510     Delta-E=        0.000000000009 Rises=F Damp=F
 DIIS: error= 2.28D-08 at cycle  22 NSaved=  20.
 NSaved=20 IEnMin=18 EnMin= -435.766103248522     IErMin=20 ErrMin= 2.28D-08
 ErrMax= 2.28D-08  0.00D+00 EMaxC= 1.00D-01 BMatC= 1.61D-13 BMatP= 6.29D-13
 IDIUse=1 WtCom= 1.00D+00 WtEn= 0.00D+00
 Coeff-Com: -0.122D-06-0.142D-06 0.184D-05 0.503D-05-0.188D-05 0.306D-04
 Coeff-Com: -0.610D-05-0.131D-03-0.440D-03 0.893D-03 0.228D-02 0.550D-02
 Coeff-Com: -0.985D-02-0.122D-01 0.910D-02 0.319D-01 0.552D-01-0.233D+00
 Coeff-Com: -0.553D+00 0.170D+01
 Coeff:     -0.122D-06-0.142D-06 0.184D-05 0.503D-05-0.188D-05 0.306D-04
 Coeff:     -0.610D-05-0.131D-03-0.440D-03 0.893D-03 0.228D-02 0.550D-02
 Coeff:     -0.985D-02-0.122D-01 0.910D-02 0.319D-01 0.552D-01-0.233D+00
 Coeff:     -0.553D+00 0.170D+01
 Gap=     0.187 Goal=   None    Shift=    0.000
 Gap=     0.079 Goal=   None    Shift=    0.000
 RMSDP=1.63D-08 MaxDP=4.38D-07 DE= 9.21D-12 OVMax= 2.24D-06

 Cycle  23  Pass 1  IDiag  1:
 RMSU=  3.99D-09    CP:  1.00D+00  1.80D+00
 E= -435.766103248528     Delta-E=       -0.000000000018 Rises=F Damp=F
 DIIS: error= 5.72D-09 at cycle  23 NSaved=  20.
 NSaved=20 IEnMin=20 EnMin= -435.766103248528     IErMin=20 ErrMin= 5.72D-09
 ErrMax= 5.72D-09  0.00D+00 EMaxC= 1.00D-01 BMatC= 2.64D-14 BMatP= 1.61D-13
 IDIUse=1 WtCom= 1.00D+00 WtEn= 0.00D+00
 Large coefficients: NSaved= 20 BigCof=    0.00 CofMax=   10.00 Det=-6.46D-15
 Inversion failed.  Reducing to 19 matrices.
 Large coefficients: NSaved= 19 BigCof=    0.00 CofMax=   10.00 Det=-6.46D-15
 Inversion failed.  Reducing to 18 matrices.
 Large coefficients: NSaved= 18 BigCof=    0.00 CofMax=   10.00 Det=-7.28D-15
 Inversion failed.  Reducing to 17 matrices.
 Large coefficients: NSaved= 17 BigCof=    0.00 CofMax=   10.00 Det=-7.32D-15
 Inversion failed.  Reducing to 16 matrices.
 Large coefficients: NSaved= 16 BigCof=    0.00 CofMax=   10.00 Det=-7.36D-15
 Inversion failed.  Reducing to 15 matrices.
 Coeff-Com:  0.916D-06-0.224D-04-0.603D-04 0.636D-03 0.673D-03 0.997D-03
 Coeff-Com: -0.406D-02-0.400D-02 0.314D-02 0.547D-02 0.147D-01-0.200D-01
 Coeff-Com: -0.123D+00 0.632D-01 0.106D+01
 Coeff:      0.916D-06-0.224D-04-0.603D-04 0.636D-03 0.673D-03 0.997D-03
 Coeff:     -0.406D-02-0.400D-02 0.314D-02 0.547D-02 0.147D-01-0.200D-01
 Coeff:     -0.123D+00 0.632D-01 0.106D+01
 Gap=     0.187 Goal=   None    Shift=    0.000
 Gap=     0.079 Goal=   None    Shift=    0.000
 RMSDP=3.72D-09 MaxDP=9.92D-08 DE=-1.83D-11 OVMax= 4.87D-07

 SCF Done:  E(UB3LYP) =  -435.766103249     A.U. after   23 cycles
            NFock= 23  Conv=0.37D-08     -V/T= 2.0060
 <Sx>= 0.0000 <Sy>= 0.0000 <Sz>= 1.0000 <S**2>= 2.0192 S= 1.0064
 <L.S>= 0.000000000000E+00
 KE= 4.331561084764D+02 PE=-1.803814673488D+03 EE= 5.348357959941D+02
 Annihilation of the first spin contaminant:
 S**2 before annihilation     2.0192,   after     2.0001
 Leave Link  502 at Sat Jun 27 02:18:50 2020, MaxMem=   524288000 cpu:            1338.0 elap:             191.2
 (Enter /home/ubuntu/g16/l601.exe)
 Copying SCF densities to generalized density rwf, IOpCl= 1 IROHF=0.

 **********************************************************************

            Population analysis using the SCF density.

 **********************************************************************

 Orbital symmetries:
 Alpha Orbitals:
       Occupied  (A) (A) (A) (A) (A) (A) (A) (A) (A) (A) (A) (A)
                 (A) (A) (A) (A) (A) (A) (A) (A) (A) (A) (A) (A)
                 (A) (A) (A) (A) (A) (A) (A) (A)
       Virtual   (A) (A) (A) (A) (A) (A) (A) (A) (A) (A) (A) (A)
                 (A) (A) (A) (A) (A) (A) (A) (A) (A) (A) (A) (A)
                 (A) (A) (A) (A) (A) (A) (A) (A) (A) (A) (A) (A)
                 (A) (A) (A) (A) (A) (A) (A) (A) (A) (A) (A) (A)
                 (A) (A) (A) (A) (A) (A) (A) (A) (A) (A) (A) (A)
                 (A) (A) (A) (A) (A) (A) (A) (A) (A) (A) (A) (A)
                 (A) (A) (A) (A) (A) (A) (A) (A) (A) (A) (A) (A)
                 (A) (A) (A) (A) (A) (A) (A) (A) (A) (A) (A) (A)
                 (A) (A) (A) (A) (A) (A) (A) (A) (A) (A) (A) (A)
                 (A) (A) (A) (A) (A) (A) (A) (A) (A) (A) (A) (A)
                 (A) (A) (A) (A) (A) (A) (A) (A) (A) (A) (A) (A)
                 (A) (A) (A) (A) (A) (A) (A) (A) (A) (A) (A) (A)
                 (A) (A) (A) (A) (A) (A) (A) (A) (A) (A) (A) (A)
                 (A) (A) (A) (A) (A) (A) (A) (A) (A) (A) (A) (A)
                 (A) (A) (A) (A) (A) (A) (A) (A) (A) (A) (A) (A)
                 (A) (A) (A) (A) (A) (A) (A) (A) (A) (A) (A) (A)
                 (A) (A) (A) (A) (A) (A) (A) (A) (A) (A) (A) (A)
                 (A) (A) (A) (A) (A) (A) (A)
 Beta  Orbitals:
       Occupied  (A) (A) (A) (A) (A) (A) (A) (A) (A) (A) (A) (A)
                 (A) (A) (A) (A) (A) (A) (A) (A) (A) (A) (A) (A)
                 (A) (A) (A) (A) (A) (A)
       Virtual   (A) (A) (A) (A) (A) (A) (A) (A) (A) (A) (A) (A)
                 (A) (A) (A) (A) (A) (A) (A) (A) (A) (A) (A) (A)
                 (A) (A) (A) (A) (A) (A) (A) (A) (A) (A) (A) (A)
                 (A) (A) (A) (A) (A) (A) (A) (A) (A) (A) (A) (A)
                 (A) (A) (A) (A) (A) (A) (A) (A) (A) (A) (A) (A)
                 (A) (A) (A) (A) (A) (A) (A) (A) (A) (A) (A) (A)
                 (A) (A) (A) (A) (A) (A) (A) (A) (A) (A) (A) (A)
                 (A) (A) (A) (A) (A) (A) (A) (A) (A) (A) (A) (A)
                 (A) (A) (A) (A) (A) (A) (A) (A) (A) (A) (A) (A)
                 (A) (A) (A) (A) (A) (A) (A) (A) (A) (A) (A) (A)
                 (A) (A) (A) (A) (A) (A) (A) (A) (A) (A) (A) (A)
                 (A) (A) (A) (A) (A) (A) (A) (A) (A) (A) (A) (A)
                 (A) (A) (A) (A) (A) (A) (A) (A) (A) (A) (A) (A)
                 (A) (A) (A) (A) (A) (A) (A) (A) (A) (A) (A) (A)
                 (A) (A) (A) (A) (A) (A) (A) (A) (A) (A) (A) (A)
                 (A) (A) (A) (A) (A) (A) (A) (A) (A) (A) (A) (A)
                 (A) (A) (A) (A) (A) (A) (A) (A) (A) (A) (A) (A)
                 (A) (A) (A) (A) (A) (A) (A) (A) (A)
 The electronic state is 3-A.
     Natural Orbital Coefficients:
                           1         2         3         4         5
     Eigenvalues --     2.00000   2.00000   2.00000   2.00000   2.00000
   1 1   C  1S         -0.01326  -0.01322  -0.15849   0.93677  -0.31284
   2        2S          0.00011  -0.00073  -0.00382   0.03067  -0.01061
   3        3S          0.02244   0.01922  -0.01126  -0.10926   0.05971
   4        4S         -0.01732  -0.00716  -0.01628  -0.11878   0.04894
   5        5PX         0.00006   0.00092   0.00157  -0.00013   0.00050
   6        5PY         0.00021  -0.00045   0.00005  -0.00482   0.00218
   7        5PZ         0.00003  -0.00006  -0.00000  -0.00073   0.00038
   8        6PX        -0.03117  -0.04292  -0.01580  -0.07301  -0.01708
   9        6PY        -0.02130  -0.03165   0.01479   0.01474  -0.00775
  10        6PZ        -0.00171  -0.00538   0.00195   0.00225  -0.00116
  11        7PX        -0.00116   0.00552  -0.00978  -0.00779  -0.02774
  12        7PY         0.00446   0.01534  -0.00105   0.02180  -0.02710
  13        7PZ         0.00118   0.00278  -0.00055   0.00389  -0.00407
  14        8D 0        0.00012  -0.00035  -0.00032  -0.00078   0.00004
  15        8D+1       -0.00003   0.00002   0.00002  -0.00000   0.00004
  16        8D-1       -0.00005  -0.00001  -0.00005   0.00022  -0.00006
  17        8D+2       -0.00013   0.00067   0.00083   0.00003   0.00037
  18        8D-2       -0.00003   0.00015   0.00003  -0.00009   0.00027
  19        9D 0        0.00196   0.00143   0.00054   0.00931  -0.00326
  20        9D+1        0.00047   0.00063   0.00138   0.00250   0.00253
  21        9D-1        0.00023   0.00238   0.00075  -0.00127   0.00008
  22        9D+2       -0.01029  -0.01648  -0.00387  -0.00767   0.00486
  23        9D-2        0.00357   0.00443   0.00747   0.01393   0.01397
  24 2   C  1S          0.00032  -0.55341  -0.81680  -0.14896  -0.01436
  25        2S          0.00029  -0.02225  -0.03000  -0.01017   0.00003
  26        3S          0.02459   0.09479   0.07705   0.05875   0.02778
  27        4S          0.00951   0.06917   0.06505   0.07533  -0.00232
  28        5PX        -0.00024  -0.00071  -0.00062   0.00295  -0.00127
  29        5PY        -0.00016   0.00033   0.00103  -0.00094   0.00038
  30        5PZ         0.00002   0.00007   0.00014  -0.00009   0.00009
  31        6PX        -0.01298  -0.01514  -0.02087  -0.06644   0.01618
  32        6PY         0.00490  -0.00919  -0.03106   0.00053  -0.02610
  33        6PZ         0.00032  -0.00158  -0.00521   0.00008  -0.00459
  34        7PX        -0.00284   0.01548  -0.00750  -0.00826  -0.01850
  35        7PY        -0.00271  -0.02509  -0.00420  -0.01537   0.01796
  36        7PZ        -0.00075  -0.00425  -0.00047  -0.00281   0.00282
  37        8D 0        0.00003   0.00039   0.00056   0.00076  -0.00022
  38        8D+1       -0.00003  -0.00007  -0.00006   0.00003  -0.00001
  39        8D-1       -0.00001  -0.00017  -0.00021  -0.00001  -0.00001
  40        8D+2        0.00003   0.00031   0.00024  -0.00122   0.00046
  41        8D-2       -0.00025  -0.00036  -0.00039   0.00026  -0.00004
  42        9D 0       -0.00008  -0.00476  -0.00607  -0.00394   0.00059
  43        9D+1       -0.00024  -0.00070   0.00212   0.00208   0.00019
  44        9D-1       -0.00023   0.00070   0.00348  -0.00168   0.00116
  45        9D+2        0.00348   0.00474  -0.00979   0.01577  -0.00746
  46        9D-2       -0.00280  -0.00419   0.01242   0.01151   0.00031
  47 3   C  1S          0.00017  -0.00034   0.00446   0.00040  -0.00010
  48        2S          0.00055  -0.00023   0.00147  -0.00108  -0.00063
  49        3S          0.00323   0.00691  -0.04154   0.02448   0.01513
  50        4S         -0.00355   0.00595  -0.02658  -0.01678  -0.00665
  51        5PX        -0.00011   0.00010  -0.00054   0.00027   0.00017
  52        5PY         0.00000   0.00007   0.00004  -0.00030   0.00057
  53        5PZ        -0.00000   0.00001   0.00001  -0.00005   0.00009
  54        6PX        -0.00145  -0.00819   0.04083   0.00423  -0.00064
  55        6PY         0.00002  -0.03384  -0.00973   0.02099  -0.04509
  56        6PZ         0.00001  -0.00568  -0.00165   0.00353  -0.00756
  57        7PX         0.00075  -0.00207   0.00898   0.00724   0.00298
  58        7PY         0.00010  -0.04072  -0.00645  -0.01289   0.02209
  59        7PZ         0.00002  -0.00690  -0.00108  -0.00228   0.00392
  60        8D 0        0.00022   0.00012  -0.00056  -0.00029  -0.00011
  61        8D+1       -0.00000  -0.00017  -0.00003   0.00000  -0.00002
  62        8D-1       -0.00006  -0.00007   0.00033   0.00016   0.00006
  63        8D+2        0.00009   0.00020  -0.00094  -0.00036  -0.00012
  64        8D-2       -0.00000  -0.00101  -0.00020   0.00003  -0.00014
  65        9D 0        0.00052  -0.00028   0.00128   0.00069   0.00026
  66        9D+1       -0.00001   0.00118   0.00037  -0.00098   0.00205
  67        9D-1       -0.00005  -0.00045   0.00215   0.00046   0.00008
  68        9D+2        0.00013   0.00316  -0.01500  -0.00455  -0.00128
  69        9D-2       -0.00001   0.00716   0.00222  -0.00592   0.01249
  70 4   C  1S          0.00095   0.83007  -0.54708  -0.08574  -0.01405
  71        2S          0.00031   0.03265  -0.01962  -0.00534  -0.00452
  72        3S          0.02439  -0.12176   0.03437   0.05241   0.02069
  73        4S          0.00932  -0.09458   0.03698   0.04006   0.05311
  74        5PX        -0.00023   0.00073  -0.00013   0.00077   0.00322
  75        5PY         0.00016   0.00057  -0.00068   0.00026   0.00109
  76        5PZ        -0.00002   0.00010  -0.00007  -0.00002   0.00014
  77        6PX        -0.01284   0.02712  -0.01788  -0.02639  -0.06021
  78        6PY        -0.00488  -0.02064   0.02217   0.02094  -0.01962
  79        6PZ        -0.00036  -0.00353   0.00371   0.00367  -0.00340
  80        7PX        -0.00264  -0.01046  -0.01099  -0.02119   0.00504
  81        7PY         0.00276  -0.02565  -0.00307  -0.00702   0.02213
  82        7PZ         0.00076  -0.00428  -0.00076  -0.00087   0.00380
  83        8D 0        0.00003  -0.00062   0.00042   0.00027   0.00067
  84        8D+1        0.00003  -0.00009   0.00003  -0.00001  -0.00004
  85        8D-1       -0.00001   0.00024  -0.00013  -0.00001   0.00002
  86        8D+2        0.00002  -0.00029   0.00001  -0.00037  -0.00128
  87        8D-2        0.00025  -0.00047   0.00021  -0.00013  -0.00029
  88        9D 0       -0.00007   0.00699  -0.00399  -0.00173  -0.00277
  89        9D+1        0.00025   0.00036  -0.00229  -0.00153  -0.00132
  90        9D-1       -0.00022  -0.00184   0.00275  -0.00001  -0.00243
  91        9D+2        0.00344  -0.00185  -0.00935   0.00273   0.01808
  92        9D-2        0.00282   0.00190  -0.01352  -0.00796  -0.00759
  93 5   C  1S         -0.01337   0.00148  -0.07293   0.30376   0.95034
  94        2S          0.00011  -0.00027  -0.00096   0.00972   0.03105
  95        3S          0.02267  -0.00560  -0.02805  -0.01966  -0.12187
  96        4S         -0.01709   0.02173  -0.02188  -0.03179  -0.12155
  97        5PX         0.00004  -0.00143   0.00109   0.00032  -0.00051
  98        5PY        -0.00019  -0.00068   0.00014   0.00112   0.00526
  99        5PZ        -0.00004  -0.00010   0.00005   0.00013   0.00083
 100        6PX        -0.03098   0.05198   0.00061  -0.05434  -0.04580
 101        6PY         0.02129  -0.02248  -0.02681  -0.00579  -0.01517
 102        6PZ         0.00170  -0.00400  -0.00402  -0.00095  -0.00238
 103        7PX        -0.00096  -0.00025  -0.00837  -0.02761   0.01132
 104        7PY        -0.00449   0.01506   0.00302   0.00990  -0.03341
 105        7PZ        -0.00120   0.00262   0.00098   0.00113  -0.00549
 106        8D 0        0.00012   0.00050  -0.00020  -0.00041  -0.00060
 107        8D+1        0.00003   0.00002  -0.00000  -0.00002   0.00003
 108        8D-1       -0.00004   0.00002  -0.00003   0.00008   0.00022
 109        8D+2       -0.00013  -0.00094   0.00047   0.00029  -0.00029
 110        8D-2        0.00003   0.00014   0.00006  -0.00014   0.00023
 111        9D 0        0.00196  -0.00221   0.00063   0.00286   0.00928
 112        9D+1       -0.00041   0.00140  -0.00089  -0.00348  -0.00028
 113        9D-1        0.00026  -0.00236  -0.00028  -0.00083  -0.00117
 114        9D+2       -0.01026   0.01717   0.00181   0.00053  -0.00843
 115        9D-2       -0.00354   0.00846  -0.00431  -0.01940  -0.00179
 116 6   C  1S          0.01426   0.00124  -0.00417  -0.03333  -0.01788
 117        2S          0.00019  -0.00014   0.00076  -0.00066  -0.00043
 118        3S         -0.04442  -0.00099   0.01275  -0.02993  -0.01577
 119        4S          0.03891   0.00276  -0.02355   0.04078   0.02200
 120        5PX         0.00037  -0.00008   0.00035   0.00011   0.00005
 121        5PY        -0.00001   0.00064   0.00017  -0.00007   0.00018
 122        5PZ         0.00001   0.00013   0.00003   0.00002  -0.00004
 123        6PX        -0.05872  -0.00387   0.01590   0.01569   0.00669
 124        6PY        -0.00009  -0.05936  -0.01374   0.01523  -0.03590
 125        6PZ        -0.00006  -0.01045  -0.00242   0.00283  -0.00665
 126        7PX        -0.00536  -0.00088  -0.00048   0.01902   0.00956
 127        7PY        -0.00010   0.00356  -0.00287   0.02751  -0.05450
 128        7PZ         0.00001  -0.00040  -0.00076   0.00524  -0.01041
 129        8D 0        0.00016  -0.00002  -0.00016   0.00122   0.00063
 130        8D+1       -0.00001   0.00004   0.00003  -0.00014   0.00029
 131        8D-1       -0.00009   0.00003  -0.00004  -0.00048  -0.00024
 132        8D+2       -0.00044  -0.00007   0.00019   0.00087   0.00043
 133        8D-2       -0.00000   0.00007   0.00009  -0.00054   0.00109
 134        9D 0       -0.00523  -0.00021   0.00142  -0.00202  -0.00114
 135        9D+1       -0.00005  -0.00287  -0.00052  -0.00020   0.00018
 136        9D-1       -0.00655  -0.00025   0.00225  -0.00477  -0.00259
 137        9D+2        0.03222   0.00068  -0.01188   0.03368   0.01761
 138        9D-2        0.00011  -0.01836  -0.00356  -0.00141   0.00116
 139 7   H  1S          0.00043  -0.00055   0.00026  -0.00653   0.00262
 140        2S         -0.00147  -0.00672  -0.01218   0.00791   0.00109
 141        3S         -0.00263  -0.00260  -0.00223  -0.00833   0.00691
 142        4PX        -0.00007   0.00014   0.00030  -0.00110   0.00042
 143        4PY        -0.00010   0.00009  -0.00016   0.00170  -0.00020
 144        4PZ        -0.00001   0.00002  -0.00002   0.00028  -0.00001
 145        5PX        -0.00239  -0.00360  -0.00415  -0.00028  -0.00039
 146        5PY        -0.00013   0.00012   0.00263  -0.00200   0.00172
 147        5PZ         0.00018  -0.00005   0.00039  -0.00034   0.00030
 148 8   H  1S          0.00008  -0.00005   0.00138  -0.00110   0.00027
 149        2S          0.00290  -0.00947  -0.01909   0.01019  -0.00178
 150        3S          0.00186   0.00737   0.00074   0.00731  -0.00121
 151        4PX         0.00010  -0.00043  -0.00080   0.00029  -0.00016
 152        4PY         0.00001  -0.00051  -0.00147  -0.00006   0.00012
 153        4PZ        -0.00001  -0.00009  -0.00024  -0.00001   0.00002
 154        5PX         0.00009   0.00139   0.00350  -0.00498   0.00145
 155        5PY        -0.00006   0.00376   0.00245  -0.00117  -0.00007
 156        5PZ        -0.00010   0.00058   0.00037  -0.00015  -0.00004
 157 9   H  1S          0.00009  -0.00031   0.00112  -0.00039  -0.00114
 158        2S          0.00291   0.01526  -0.01362   0.00473   0.01153
 159        3S          0.00184  -0.00764  -0.00170   0.00284   0.00635
 160        4PX         0.00010   0.00068  -0.00055   0.00005   0.00042
 161        4PY        -0.00001  -0.00103   0.00117  -0.00005  -0.00005
 162        4PZ         0.00002  -0.00017   0.00019  -0.00001  -0.00001
 163        5PX         0.00009  -0.00222   0.00238  -0.00181  -0.00525
 164        5PY         0.00007   0.00432  -0.00084   0.00097   0.00122
 165        5PZ         0.00011   0.00067  -0.00014   0.00016   0.00016
 166 10  H  1S          0.00044   0.00080  -0.00004  -0.00178  -0.00697
 167        2S         -0.00152   0.00995  -0.00837   0.00567   0.00674
 168        3S         -0.00259   0.00379  -0.00211   0.00067  -0.01047
 169        4PX        -0.00007  -0.00016   0.00014  -0.00032  -0.00116
 170        4PY         0.00010   0.00016   0.00010  -0.00084  -0.00150
 171        4PZ         0.00001   0.00003   0.00002  -0.00015  -0.00024
 172        5PX        -0.00238   0.00491  -0.00243  -0.00034   0.00049
 173        5PY         0.00010   0.00094  -0.00208  -0.00027   0.00284
 174        5PZ        -0.00016   0.00008  -0.00035  -0.00003   0.00050
 175 11  N  1S          0.99681  -0.00078  -0.00208   0.01648   0.00857
 176        2S          0.02924   0.00001  -0.00048   0.00100   0.00056
 177        3S         -0.07289  -0.00242   0.01665  -0.01713  -0.00981
 178        4S         -0.03648  -0.00097   0.00444   0.00171   0.00058
 179        5PX         0.00027   0.00003   0.00016  -0.00035  -0.00023
 180        5PY         0.00006  -0.00004  -0.00005   0.00002  -0.00032
 181        5PZ         0.00011   0.00014  -0.00000   0.00000  -0.00015
 182        6PX        -0.01847  -0.00032   0.00140   0.00137   0.00061
 183        6PY         0.00018  -0.00096  -0.00026   0.00006  -0.00024
 184        6PZ        -0.00010   0.00055   0.00035  -0.00184   0.00354
 185        7PX        -0.00484  -0.00051   0.00388  -0.00444  -0.00245
 186        7PY         0.00002  -0.00142  -0.00025  -0.00004  -0.00005
 187        7PZ        -0.00003   0.00311   0.00077  -0.00137   0.00293
 188        8D 0        0.00049   0.00001  -0.00009   0.00012   0.00008
 189        8D+1        0.00000  -0.00003  -0.00001   0.00003  -0.00006
 190        8D-1       -0.00075   0.00002  -0.00014   0.00009   0.00006
 191        8D+2       -0.00016  -0.00002   0.00006   0.00004   0.00003
 192        8D-2       -0.00001   0.00009   0.00003  -0.00009   0.00020
 193        9D 0       -0.00539  -0.00024   0.00223  -0.00394  -0.00211
 194        9D+1       -0.00002   0.00024   0.00002   0.00018  -0.00031
 195        9D-1        0.00576   0.00006  -0.00047   0.00057   0.00032
 196        9D+2        0.00008   0.00007  -0.00030  -0.00038  -0.00017
 197        9D-2        0.00001   0.00021   0.00017  -0.00100   0.00191
 198 12  O  1S          0.03665   0.00335  -0.00402   0.00465   0.00694
 199        2S          0.00041   0.00006   0.00010  -0.00020   0.00038
 200        3S          0.00469  -0.00017  -0.00157   0.00330  -0.00229
 201        4S          0.00483  -0.00258   0.00029   0.00040  -0.00348
 202        5PX        -0.00051   0.00011   0.00002  -0.00000   0.00006
 203        5PY        -0.00088  -0.00004   0.00007   0.00032   0.00032
 204        5PZ         0.00079  -0.00009   0.00001   0.00002   0.00005
 205        6PX         0.00235  -0.00018  -0.00023   0.00055  -0.00085
 206        6PY         0.00108  -0.00004  -0.00128   0.00247   0.00049
 207        6PZ         0.00077   0.00009   0.00037  -0.00022   0.00112
 208        7PX         0.00032  -0.00027  -0.00042   0.00051   0.00014
 209        7PY         0.00042   0.00030   0.00061  -0.00040   0.00024
 210        7PZ        -0.00082  -0.00047  -0.00036   0.00091   0.00033
 211        8D 0       -0.00010  -0.00001  -0.00003   0.00005   0.00002
 212        8D+1        0.00054   0.00001  -0.00003  -0.00003   0.00004
 213        8D-1        0.00060   0.00002  -0.00001  -0.00001   0.00003
 214        8D+2        0.00016   0.00002  -0.00001   0.00001   0.00007
 215        8D-2       -0.00040  -0.00001  -0.00000   0.00002  -0.00001
 216        9D 0       -0.00101   0.00001   0.00012  -0.00041  -0.00025
 217        9D+1       -0.00055  -0.00005   0.00024   0.00017   0.00006
 218        9D-1        0.00051  -0.00004   0.00029  -0.00041  -0.00019
 219        9D+2        0.00009  -0.00010   0.00032  -0.00048  -0.00054
 220        9D-2        0.00063  -0.00001  -0.00032   0.00045   0.00017
 221 13  O  1S          0.03983  -0.00151  -0.00647   0.01022  -0.00005
 222        2S          0.00045  -0.00009   0.00002   0.00020  -0.00038
 223        3S          0.00437   0.00048  -0.00096  -0.00008   0.00417
 224        4S          0.00473   0.00231   0.00159  -0.00242   0.00235
 225        5PX        -0.00054  -0.00007  -0.00004   0.00006  -0.00014
 226        5PY         0.00102   0.00019  -0.00007  -0.00043  -0.00034
 227        5PZ        -0.00074  -0.00001  -0.00007  -0.00008  -0.00015
 228        6PX         0.00233   0.00024  -0.00006  -0.00033   0.00094
 229        6PY        -0.00090  -0.00020   0.00110  -0.00178  -0.00200
 230        6PZ        -0.00092   0.00027  -0.00016  -0.00084   0.00077
 231        7PX         0.00033   0.00036  -0.00029   0.00041   0.00036
 232        7PY        -0.00040   0.00049  -0.00042   0.00007   0.00053
 233        7PZ         0.00080  -0.00048   0.00016  -0.00083  -0.00059
 234        8D 0       -0.00008   0.00002  -0.00002   0.00004   0.00002
 235        8D+1       -0.00055   0.00000   0.00003  -0.00002   0.00004
 236        8D-1        0.00059  -0.00001  -0.00002   0.00001  -0.00003
 237        8D+2        0.00016  -0.00001  -0.00003   0.00005  -0.00004
 238        8D-2        0.00042  -0.00000  -0.00000  -0.00000  -0.00002
 239        9D 0       -0.00103  -0.00001   0.00013  -0.00046  -0.00020
 240        9D+1        0.00050   0.00006  -0.00024  -0.00017  -0.00008
 241        9D-1        0.00055  -0.00003   0.00028  -0.00037  -0.00025
 242        9D+2        0.00013   0.00003   0.00036  -0.00069  -0.00010
 243        9D-2       -0.00062  -0.00009   0.00031  -0.00041  -0.00032
                           6         7         8         9        10
     Eigenvalues --     2.00000   2.00000   2.00000   2.00000   2.00000
   1 1   C  1S         -0.00969   0.00228   0.02621   0.00093  -0.01701
   2        2S          0.00003   0.00117  -0.00070  -0.00434   0.04095
   3        3S          0.00691   0.00746   0.01823   0.02423   0.00247
   4        4S         -0.01310   0.00232   0.00991  -0.01858  -0.09704
   5        5PX        -0.00005  -0.00053   0.00069  -0.00514  -0.03432
   6        5PY         0.00020   0.00009   0.00510   0.00010   0.06070
   7        5PZ         0.00007  -0.00001   0.00069   0.00011   0.00056
   8        6PX        -0.00189   0.01465  -0.07287   0.01937  -0.09179
   9        6PY        -0.00027  -0.00096  -0.03695  -0.00038   0.00249
  10        6PZ        -0.00254   0.00284  -0.00716   0.00011  -0.00285
  11        7PX        -0.00571   0.00005  -0.01305   0.00322   0.02885
  12        7PY         0.00217   0.00054  -0.01244   0.00694  -0.01330
  13        7PZ         0.00032   0.00065  -0.00152   0.00146  -0.00373
  14        8D 0        0.00007   0.00003   0.00046   0.00003  -0.00145
  15        8D+1        0.00003   0.00000  -0.00019   0.00000   0.00053
  16        8D-1       -0.00002  -0.00008  -0.00022   0.00008   0.00032
  17        8D+2        0.00017  -0.00002   0.00073  -0.00046   0.00041
  18        8D-2        0.00000   0.00003  -0.00139   0.00007  -0.00216
  19        9D 0        0.00154   0.00045  -0.00132   0.00102   0.00266
  20        9D+1       -0.00009  -0.00111   0.00317  -0.00115   0.01044
  21        9D-1        0.00121  -0.00091   0.00270  -0.00163  -0.00292
  22        9D+2       -0.00331  -0.00282  -0.01191   0.00711   0.02769
  23        9D-2       -0.00094  -0.00764   0.02178  -0.00647   0.07508
  24 2   C  1S         -0.00465   0.00089  -0.00748   0.01151  -0.00149
  25        2S         -0.00012  -0.00008  -0.00277  -0.01662   0.00123
  26        3S          0.01191   0.00183   0.04650   0.00552   0.01669
  27        4S          0.00207   0.00154   0.01391   0.03795   0.01414
  28        5PX         0.00003  -0.00008  -0.00052  -0.00386   0.00188
  29        5PY         0.00011   0.00008  -0.00033  -0.00276   0.01131
  30        5PZ         0.00005   0.00003  -0.00026  -0.00042   0.00386
  31        6PX         0.00085   0.00967  -0.03743   0.04068  -0.01950
  32        6PY        -0.00512  -0.00047   0.00503  -0.01819  -0.03415
  33        6PZ        -0.00021  -0.00100   0.00117  -0.00309  -0.00197
  34        7PX        -0.00350  -0.00224  -0.00889   0.00262  -0.00326
  35        7PY         0.00183  -0.00103   0.00435  -0.01306   0.00386
  36        7PZ         0.00016  -0.00070   0.00038  -0.00241   0.00383
  37        8D 0       -0.00002  -0.00003  -0.00016   0.00089  -0.00038
  38        8D+1       -0.00003   0.00005  -0.00006   0.00022   0.00005
  39        8D-1        0.00002   0.00003   0.00005  -0.00040  -0.00001
  40        8D+2       -0.00007  -0.00006   0.00001   0.00072   0.00098
  41        8D-2       -0.00005  -0.00001  -0.00034   0.00134  -0.00326
  42        9D 0       -0.00029   0.00001  -0.00005  -0.00303  -0.00024
  43        9D+1       -0.00069  -0.00029   0.00064  -0.00225   0.00424
  44        9D-1       -0.00014   0.00076  -0.00236   0.00161   0.00086
  45        9D+2       -0.00147  -0.00276   0.01313  -0.00396   0.00429
  46        9D-2       -0.00149  -0.00438   0.00563  -0.01305   0.01771
  47 3   C  1S          0.00082  -0.00096   0.02226   1.00116   0.00770
  48        2S          0.00017  -0.00019  -0.00068   0.02721   0.00239
  49        3S          0.00202  -0.00224   0.04341  -0.12690   0.00042
  50        4S          0.00209  -0.00230   0.01203  -0.08665   0.03965
  51        5PX        -0.00007   0.00008   0.00008   0.00106   0.00031
  52        5PY        -0.00004  -0.00004  -0.00000  -0.00022  -0.00192
  53        5PZ         0.00001   0.00001  -0.00000  -0.00003  -0.00141
  54        6PX         0.00152  -0.00161  -0.01165   0.01075   0.01178
  55        6PY        -0.01140  -0.01051  -0.00034   0.00052   0.00772
  56        6PZ        -0.00201  -0.00189  -0.00006   0.00007   0.00231
  57        7PX         0.00071  -0.00074   0.00344   0.00918   0.00865
  58        7PY         0.00310   0.00291   0.00006  -0.00051  -0.02242
  59        7PZ         0.00073   0.00071   0.00003  -0.00007  -0.00730
  60        8D 0        0.00003  -0.00003  -0.00000  -0.00001   0.00091
  61        8D+1        0.00001   0.00001   0.00000   0.00000   0.00036
  62        8D-1       -0.00003   0.00004  -0.00004  -0.00002   0.00048
  63        8D+2       -0.00003   0.00003  -0.00002   0.00015   0.00011
  64        8D-2        0.00006   0.00006   0.00000   0.00003   0.00043
  65        9D 0        0.00013  -0.00014   0.00041   0.01038   0.00155
  66        9D+1        0.00043   0.00040   0.00001   0.00000   0.00070
  67        9D-1        0.00009  -0.00010  -0.00026  -0.00688  -0.00010
  68        9D+2       -0.00091   0.00097   0.00153   0.02156  -0.00744
  69        9D-2        0.00239   0.00219   0.00007   0.00002  -0.00044
  70 4   C  1S         -0.00131   0.00463  -0.00600   0.01004   0.00153
  71        2S          0.00003   0.00015  -0.00265  -0.01525  -0.00249
  72        3S         -0.00248  -0.01230   0.04631   0.00787   0.09803
  73        4S         -0.00128  -0.00219   0.01394   0.03544  -0.03218
  74        5PX         0.00009  -0.00007  -0.00057  -0.00378   0.00181
  75        5PY         0.00010   0.00010   0.00030   0.00214   0.01090
  76        5PZ        -0.00001   0.00004   0.00027   0.00036  -0.01016
  77        6PX        -0.00975   0.00021  -0.03790   0.03972  -0.05054
  78        6PY        -0.00105  -0.00487  -0.00523   0.01870  -0.01048
  79        6PZ        -0.00112  -0.00009  -0.00126   0.00315   0.00103
  80        7PX         0.00237   0.00341  -0.00879   0.00231  -0.02581
  81        7PY        -0.00088   0.00184  -0.00425   0.01276  -0.02669
  82        7PZ        -0.00065   0.00016  -0.00039   0.00232   0.00072
  83        8D 0        0.00003   0.00001  -0.00016   0.00087   0.00044
  84        8D+1        0.00006  -0.00004   0.00006  -0.00023   0.00047
  85        8D-1       -0.00004  -0.00002   0.00005  -0.00039  -0.00009
  86        8D+2        0.00006   0.00007   0.00001   0.00072  -0.00101
  87        8D-2       -0.00001  -0.00004   0.00035  -0.00137  -0.00125
  88        9D 0       -0.00000   0.00029  -0.00004  -0.00305  -0.00057
  89        9D+1       -0.00031  -0.00068  -0.00064   0.00235  -0.00210
  90        9D-1       -0.00078   0.00022  -0.00237   0.00157  -0.00236
  91        9D+2        0.00286   0.00120   0.01331  -0.00358   0.00593
  92        9D-2       -0.00441  -0.00123  -0.00577   0.01360   0.01196
  93 5   C  1S         -0.00245   0.00752   0.02800   0.00100   0.00572
  94        2S         -0.00108  -0.00007  -0.00053  -0.00462  -0.01278
  95        3S         -0.00688  -0.00726   0.01740   0.02233   0.14590
  96        4S         -0.00194   0.01371   0.00926  -0.01635   0.11513
  97        5PX         0.00042   0.00006   0.00069  -0.00413   0.00351
  98        5PY         0.00013   0.00009  -0.00529   0.00011   0.03256
  99        5PZ        -0.00006   0.00007  -0.00068   0.00000  -0.00854
 100        6PX        -0.01442   0.00344  -0.07325   0.01837  -0.11586
 101        6PY        -0.00016  -0.00105   0.03679  -0.00011   0.09868
 102        6PZ         0.00283  -0.00286   0.00712  -0.00012  -0.00287
 103        7PX         0.00023   0.00576  -0.01285   0.00319  -0.02997
 104        7PY         0.00064   0.00223   0.01222  -0.00663   0.04380
 105        7PZ         0.00061   0.00035   0.00153  -0.00135   0.00043
 106        8D 0       -0.00003  -0.00007   0.00046   0.00001   0.00058
 107        8D+1        0.00000   0.00002   0.00019  -0.00001  -0.00094
 108        8D-1        0.00008   0.00001  -0.00021   0.00008  -0.00093
 109        8D+2       -0.00000  -0.00017   0.00072  -0.00040   0.00162
 110        8D-2        0.00003   0.00000   0.00140  -0.00009  -0.00139
 111        9D 0       -0.00051  -0.00157  -0.00132   0.00101   0.00674
 112        9D+1       -0.00107  -0.00002  -0.00310   0.00126  -0.01063
 113        9D-1        0.00092  -0.00134   0.00269  -0.00157   0.00118
 114        9D+2        0.00271   0.00351  -0.01186   0.00688  -0.05044
 115        9D-2       -0.00757  -0.00043  -0.02201   0.00672  -0.00092
 116 6   C  1S          0.00623  -0.00859   1.00073  -0.02225  -0.00528
 117        2S          0.00109  -0.00122   0.03178  -0.00244   0.00538
 118        3S         -0.00639   0.00713  -0.18904   0.02849  -0.16420
 119        4S          0.00958  -0.01036  -0.07815   0.03772  -0.05339
 120        5PX        -0.00056   0.00057  -0.00151  -0.00093  -0.01043
 121        5PY         0.00029   0.00034  -0.00000   0.00019   0.00123
 122        5PZ         0.00009   0.00010   0.00002   0.00001   0.00316
 123        6PX        -0.00393   0.00413  -0.03708   0.00062  -0.11589
 124        6PY         0.00905   0.00759   0.00008  -0.00029   0.01495
 125        6PZ         0.00118   0.00111  -0.00004   0.00005  -0.01191
 126        7PX         0.01127  -0.01201   0.00474   0.00429  -0.01339
 127        7PY        -0.00104  -0.00084  -0.00022   0.00050   0.07694
 128        7PZ         0.00053   0.00046  -0.00010   0.00007   0.01410
 129        8D 0        0.00019  -0.00020  -0.00000   0.00007  -0.00060
 130        8D+1       -0.00015  -0.00012   0.00001   0.00003  -0.00799
 131        8D-1        0.00023  -0.00024   0.00025   0.00009  -0.00047
 132        8D+2       -0.00041   0.00043  -0.00063  -0.00024  -0.00551
 133        8D-2        0.00022   0.00025   0.00004   0.00003  -0.00731
 134        9D 0       -0.00070   0.00077   0.00884  -0.00162  -0.01695
 135        9D+1       -0.00136  -0.00142  -0.00008  -0.00012   0.02918
 136        9D-1        0.00241  -0.00251  -0.00886  -0.00065  -0.02174
 137        9D+2        0.00725  -0.00794   0.04059   0.00568   0.11598
 138        9D-2       -0.00664  -0.00708  -0.00009  -0.00034   0.06764
 139 7   H  1S          0.00020   0.00062   0.00192   0.00048   0.07989
 140        2S         -0.00510  -0.00615   0.01690   0.00183   0.13351
 141        3S         -0.00269  -0.00126   0.00055   0.00042   0.00950
 142        4PX        -0.00006  -0.00007   0.00013  -0.00013   0.00099
 143        4PY        -0.00012  -0.00023   0.00054   0.00007  -0.00402
 144        4PZ        -0.00001  -0.00001   0.00007   0.00002  -0.00139
 145        5PX        -0.00148  -0.00065  -0.00073   0.00163   0.00329
 146        5PY         0.00110   0.00084  -0.00475   0.00079  -0.02239
 147        5PZ        -0.00015   0.00040  -0.00080   0.00015  -0.00685
 148 8   H  1S          0.00016  -0.00013  -0.00167  -0.01295   0.00561
 149        2S          0.00286   0.00013   0.00122   0.00557  -0.00385
 150        3S          0.00043   0.00085   0.00275   0.00142  -0.00066
 151        4PX         0.00003   0.00005   0.00014   0.00041  -0.00040
 152        4PY         0.00002   0.00003   0.00031   0.00153  -0.00053
 153        4PZ         0.00002  -0.00002   0.00005   0.00026  -0.00008
 154        5PX        -0.00013   0.00076  -0.00142  -0.00030  -0.00124
 155        5PY        -0.00081  -0.00027   0.00124  -0.00267   0.00273
 156        5PZ         0.00012  -0.00008   0.00030  -0.00042  -0.00092
 157 9   H  1S          0.00010  -0.00017  -0.00165  -0.01171  -0.00379
 158        2S         -0.00041  -0.00293   0.00124   0.00752   0.01817
 159        3S         -0.00085  -0.00041   0.00276   0.00141  -0.00037
 160        4PX        -0.00005  -0.00003   0.00014   0.00035   0.00078
 161        4PY         0.00003   0.00002  -0.00031  -0.00146  -0.00039
 162        4PZ        -0.00002   0.00002  -0.00005  -0.00024  -0.00054
 163        5PX        -0.00072   0.00019  -0.00146  -0.00052   0.00102
 164        5PY        -0.00034  -0.00080  -0.00126   0.00298   0.00335
 165        5PZ        -0.00009   0.00013  -0.00029   0.00049  -0.00061
 166 10  H  1S         -0.00053  -0.00011   0.00211  -0.00032  -0.02887
 167        2S          0.00659   0.00473   0.01725   0.00022  -0.05382
 168        3S          0.00140   0.00265   0.00049   0.00047   0.01198
 169        4PX         0.00008   0.00006   0.00013  -0.00014  -0.00130
 170        4PY        -0.00023  -0.00010  -0.00054  -0.00011  -0.00058
 171        4PZ        -0.00001  -0.00001  -0.00006  -0.00002  -0.00050
 172        5PX         0.00072   0.00148  -0.00072   0.00139  -0.01898
 173        5PY         0.00096   0.00104   0.00482  -0.00107  -0.00827
 174        5PZ         0.00042  -0.00019   0.00085  -0.00017  -0.00475
 175 11  N  1S         -0.03769   0.03738  -0.01001  -0.00062   0.10441
 176        2S         -0.00437   0.00418  -0.00578   0.00267  -0.24198
 177        3S          0.03923  -0.04218  -0.02464  -0.00653  -0.29794
 178        4S          0.02551  -0.02733  -0.00884   0.00324  -0.12243
 179        5PX         0.00177  -0.00160  -0.00303  -0.00134   0.16705
 180        5PY        -0.00042  -0.00116  -0.00075  -0.00079   0.10551
 181        5PZ         0.00260   0.00166  -0.00025  -0.00081   0.23043
 182        6PX        -0.01911   0.02021  -0.00318  -0.00155  -0.00337
 183        6PY         0.01606   0.01436  -0.00035  -0.00052   0.09200
 184        6PZ        -0.02189  -0.02087  -0.00021  -0.00040   0.08862
 185        7PX        -0.00694   0.00739  -0.00684  -0.00236  -0.00901
 186        7PY         0.00366   0.00329  -0.00003  -0.00016   0.00294
 187        7PZ        -0.00460  -0.00438  -0.00004  -0.00007   0.01490
 188        8D 0       -0.00029   0.00029   0.00067   0.00023  -0.02180
 189        8D+1       -0.00065  -0.00056   0.00001   0.00004  -0.01190
 190        8D-1        0.00019  -0.00018   0.00030   0.00008   0.00431
 191        8D+2        0.00020  -0.00024  -0.00061   0.00017  -0.01681
 192        8D-2        0.00048   0.00046   0.00002   0.00002   0.00016
 193        9D 0        0.00279  -0.00314  -0.00087  -0.00058  -0.02128
 194        9D+1        0.00680   0.00614  -0.00004  -0.00008   0.01901
 195        9D-1       -0.00964   0.01044  -0.00192  -0.00007   0.00293
 196        9D+2       -0.00308   0.00345  -0.00362  -0.00032  -0.00049
 197        9D-2       -0.00667  -0.00615  -0.00004  -0.00004   0.00653
[...]
 ! R11   R(6,11)                 1.4555         -DE/DX =    0.0                 !
 ! R12   R(11,12)                1.2201         -DE/DX =    0.0                 !
 ! R13   R(11,13)                1.2201         -DE/DX =    0.0                 !
 ! A1    A(2,1,6)              117.6361         -DE/DX =    0.0                 !
 ! A2    A(2,1,7)              122.3347         -DE/DX =    0.0                 !
 ! A3    A(6,1,7)              120.028          -DE/DX =    0.0                 !
 ! A4    A(1,2,3)              116.0091         -DE/DX =    0.0                 !
 ! A5    A(1,2,8)              122.1236         -DE/DX =    0.0                 !
 ! A6    A(3,2,8)              121.867          -DE/DX =    0.0                 !
 ! A7    A(2,3,4)              127.9415         -DE/DX =    0.0                 !
 ! A8    A(3,4,5)              116.009          -DE/DX =    0.0                 !
 ! A9    A(3,4,9)              121.8671         -DE/DX =    0.0                 !
 ! A10   A(5,4,9)              122.1236         -DE/DX =    0.0                 !
 ! A11   A(4,5,6)              117.6361         -DE/DX =    0.0                 !
 ! A12   A(4,5,10)             122.3346         -DE/DX =    0.0                 !
 ! A13   A(6,5,10)             120.028          -DE/DX =    0.0                 !
 ! A14   A(1,6,5)              124.7678         -DE/DX =    0.0                 !
 ! A15   A(1,6,11)             117.6161         -DE/DX =    0.0                 !
 ! A16   A(5,6,11)             117.6161         -DE/DX =    0.0                 !
 ! A17   A(6,11,12)            116.4262         -DE/DX =    0.0                 !
 ! A18   A(6,11,13)            116.4259         -DE/DX =    0.0                 !
 ! A19   A(12,11,13)           127.1479         -DE/DX =    0.0                 !
 ! D1    D(6,1,2,3)              0.1513         -DE/DX =    0.0                 !
 ! D2    D(6,1,2,8)            179.9593         -DE/DX =    0.0                 !
 ! D3    D(7,1,2,3)           -179.4405         -DE/DX =    0.0                 !
 ! D4    D(7,1,2,8)              0.3674         -DE/DX =    0.0                 !
 ! D5    D(2,1,6,5)             -0.0813         -DE/DX =    0.0                 !
 ! D6    D(2,1,6,11)           179.9186         -DE/DX =    0.0                 !
 ! D7    D(7,1,6,5)            179.5204         -DE/DX =    0.0                 !
 ! D8    D(7,1,6,11)            -0.4797         -DE/DX =    0.0                 !
 ! D9    D(1,2,3,4)             -0.0799         -DE/DX =    0.0                 !
 ! D10   D(8,2,3,4)           -179.8884         -DE/DX =    0.0                 !
 ! D11   D(2,3,4,5)             -0.0801         -DE/DX =    0.0                 !
 ! D12   D(2,3,4,9)           -179.8885         -DE/DX =    0.0                 !
 ! D13   D(3,4,5,6)              0.1513         -DE/DX =    0.0                 !
 ! D14   D(3,4,5,10)          -179.4405         -DE/DX =    0.0                 !
 ! D15   D(9,4,5,6)            179.9592         -DE/DX =    0.0                 !
 ! D16   D(9,4,5,10)             0.3674         -DE/DX =    0.0                 !
 ! D17   D(4,5,6,1)             -0.0811         -DE/DX =    0.0                 !
 ! D18   D(4,5,6,11)           179.919          -DE/DX =    0.0                 !
 ! D19   D(10,5,6,1)           179.5206         -DE/DX =    0.0                 !
 ! D20   D(10,5,6,11)           -0.4793         -DE/DX =    0.0                 !
 ! D21   D(1,6,11,12)         -120.4896         -DE/DX =    0.0                 !
 ! D22   D(1,6,11,13)           59.5102         -DE/DX =    0.0                 !
 ! D23   D(5,6,11,12)           59.5103         -DE/DX =    0.0                 !
 ! D24   D(5,6,11,13)         -120.4899         -DE/DX =    0.0                 !
 --------------------------------------------------------------------------------
 GradGradGradGradGradGradGradGradGradGradGradGradGradGradGradGradGradGrad

 Leave Link  103 at Sat Jun 27 02:47:08 2020, MaxMem=   524288000 cpu:               0.0 elap:               0.0
 (Enter /home/ubuntu/g16/l9999.exe)

 ----------------------------------------------------------------------

 Electric dipole moment (input orientation):
 (Debye = 10**-18 statcoulomb cm , SI units = C m)
                  (au)            (Debye)         (10**-30 SI)
   Tot        0.206174D+01      0.524041D+01      0.174801D+02
   x          0.204802D+01      0.520554D+01      0.173638D+02
   y          0.225700D+00      0.573672D+00      0.191356D+01
   z          0.737259D-01      0.187393D+00      0.625074D+00

 Dipole polarizability, Alpha (input orientation).
 (esu units = cm**3 , SI units = C**2 m**2 J**-1)
 Alpha(0;0):
               (au)            (10**-24 esu)      (10**-40 SI)
   iso        0.943587D+02      0.139825D+02      0.155577D+02
   aniso      0.862488D+02      0.127808D+02      0.142205D+02
   xx         0.148342D+03      0.219820D+02      0.244583D+02
   yx         0.717116D+01      0.106266D+01      0.118236D+01
   yy         0.807905D+02      0.119719D+02      0.133206D+02
   zx         0.266267D+01      0.394567D+00      0.439015D+00
   zy         0.743561D+01      0.110184D+01      0.122597D+01
   zz         0.539439D+02      0.799366D+01      0.889415D+01

 ----------------------------------------------------------------------

 Dipole orientation:
     6          2.86096748         -2.31282639         -3.16763299
     6          2.86429230         -2.31125153         -0.55648591
     6          1.58047270         -0.29547830          0.61048783
     6          0.29676127          1.71970656         -0.55656870
     6          0.29973138          1.71993934         -3.16778848
     6          1.57951792         -0.29730587         -4.41735218
     1          3.78124819         -3.79042978         -4.26973764
     1          3.79896892         -3.78547681          0.53899262
     1         -0.63798968          3.19435722          0.53817158
     1         -0.62080301          3.19697062         -4.27052725
     7          1.57848901         -0.29803459         -7.16776394
     8          2.52530600          1.53912746         -8.19094509
     8          0.63450569         -2.13199731         -8.19650849

 Electric dipole moment (dipole orientation):
 (Debye = 10**-18 statcoulomb cm , SI units = C m)
                  (au)            (Debye)         (10**-30 SI)
   Tot        0.206174D+01      0.524041D+01      0.174801D+02
   x          0.000000D+00      0.000000D+00      0.000000D+00
   y          0.000000D+00      0.000000D+00      0.000000D+00
   z          0.206174D+01      0.524041D+01      0.174801D+02

 Dipole polarizability, Alpha (dipole orientation).
 (esu units = cm**3 , SI units = C**2 m**2 J**-1)
 Alpha(0;0):
               (au)            (10**-24 esu)      (10**-40 SI)
   iso        0.943587D+02      0.139825D+02      0.155577D+02
   aniso      0.862488D+02      0.127808D+02      0.142205D+02
   xx         0.556805D+02      0.825101D+01      0.918048D+01
   yx        -0.979183D+01     -0.145100D+01     -0.161446D+01
   yy         0.781771D+02      0.115846D+02      0.128897D+02
   zx        -0.405482D-01     -0.600863D-02     -0.668550D-02
   zy        -0.107038D+00     -0.158614D-01     -0.176481D-01
   zz         0.149219D+03      0.221119D+02      0.246028D+02

 ----------------------------------------------------------------------
 1\1\GINC-LC06-4-8\Freq\UB3LYP\Aug-CC-pVDZ\C6H4N1O2(1+,3)\UBUNTU\27-Jun
 -2020\0\\#P Geom=AllCheck Guess=TCheck SCRF=Check GenChk UB3LYP/Aug-CC
 -pVDZ Freq\\t-4-NO2Ph+_UB3LYP-aug-cc-pVDZ\\1,3\C,-1.4649375095,-1.5521
 812877,-1.4298459386\C,-0.0923756281,-1.4002800029,-1.3822743561\C,0.3
 769066194,-0.2069928947,-0.8021164494\C,-0.3806736248,0.8507714074,-0.
 2661479792\C,-1.7532164947,0.6994616771,-0.317134622\C,-2.2659319117,-
 0.4991556802,-0.8966500973\H,-1.9391252181,-2.440021124,-1.8488556682\
 H,0.588783149,-2.1598479532,-1.7674624001\H,0.089444584,1.7374441213,0
 .1604998236\H,-2.4379933526,1.4592910349,0.0603195292\N,-3.7116886721,
 -0.6588094658,-0.9481128501\O,-4.3278846096,0.1902516227,-1.5716005637
 \O,-4.1742073312,-1.625221455,-0.365128428\\Version=ES64L-G16RevA.03\S
 tate=3-A\HF=-435.7661043\S2=2.019126\S2-1=0.\S2A=2.000128\RMSD=9.203e-
 10\RMSF=2.292e-05\ZeroPoint=0.0870317\Thermal=0.0945844\Dipole=2.04801
 82,0.2256998,0.0737259\DipoleDeriv=0.3003717,0.3255202,0.1572859,-0.04
 19888,-0.0682956,-0.0618992,0.0123028,-0.0986724,0.0271519,-0.4307883,
 -0.3595465,-0.1601013,-0.6545247,-0.174529,-0.0687423,-0.345247,-0.066
 3057,-0.0393839,0.6831813,0.0348938,0.0101811,0.0368264,0.3312267,0.07
 36691,0.0081256,0.0921797,0.1849914,-0.67276,0.2558976,0.1267467,0.550
 1067,0.0264425,0.0083863,0.3097049,0.0279027,-0.00544,0.3565112,-0.225
 3557,-0.1162634,0.1414643,-0.10923,-0.0844824,0.0386545,-0.1162142,0.0
 195752,0.5574342,-0.0014725,-0.0028864,-0.0122022,0.5327541,0.1056391,
 0.0023841,0.1011501,0.2846794,0.083206,-0.00406,0.001102,0.0099087,0.1
 564684,-0.0020002,0.0242144,0.0074141,0.150599,0.1783463,-0.0275694,-0
 .0136213,-0.0298669,0.1401275,0.0029324,-0.013212,0.0020126,0.1396887,
 0.162234,0.0322537,0.0145805,0.0348546,0.1540287,0.0083396,0.0138666,0
 .0072425,0.1418877,0.0899358,-0.0113269,-0.0050918,-0.0251186,0.151779
 9,-0.0039988,-0.0294056,0.0013277,0.1483496,-0.4652277,-0.1093278,0.00
 61036,-0.0665031,0.6192635,-0.3430372,-0.0350038,-0.2444977,0.3776631,
 0.040038,0.2616183,-0.1690375,0.2663074,-0.3289062,0.1732376,-0.104213
 9,0.1388461,-0.2244338,0.1175175,-0.1715249,0.1510018,-0.2092637,-0.43
 11304,0.191956,0.1178296,0.1476145,-0.2053283\Polar=148.3418266,7.1711
 554,80.7904889,2.6626701,7.4356115,53.9438971\Quadrupole=2.8040261,1.9
 627245,-4.7667506,-0.1232918,-0.371795,5.7973221\PG=C01 [X(C6H4N1O2)]\
 NImag=0\\0.67543739,0.08429121,0.57000334,0.02729208,0.21915334,0.2261
 7201,-0.39559721,-0.04160291,-0.01519694,0.67633446,-0.01799461,-0.089
 00264,-0.01501561,-0.06938602,0.54489626,-0.00320459,-0.01417332,-0.06
 606151,-0.04498297,0.21007990,0.22380440,-0.01735951,-0.03607805,-0.01
 741136,-0.11004849,-0.05623633,-0.02622393,0.29766400,-0.02237756,-0.0
 2716547,-0.01460343,-0.02469263,-0.21851498,-0.08148963,-0.02063158,0.
 42415224,-0.01015708,-0.01896142,0.00561830,-0.01161666,-0.08228889,-0
 .09091459,-0.01445704,0.17415276,0.16077630,-0.02203251,0.01200856,0.0
 0787955,0.05445468,0.01893545,0.00810317,-0.13731991,0.04829859,0.0260
 8714,0.63792471,0.00752415,0.00111922,-0.00041511,0.00294917,-0.035853
 95,-0.02228695,0.08061477,-0.19496775,-0.07309376,0.07532605,0.5774320
 9,0.00276407,0.00177526,-0.00162694,0.00102549,-0.02249276,-0.00179836
 ,0.04079215,-0.07142775,-0.08708917,0.02815810,0.22364822,0.22910117,0
 .05390936,-0.00759314,-0.00229163,-0.01636969,-0.01168427,-0.00433550,
 -0.03264362,0.02303489,0.01189461,-0.39357625,-0.04930232,-0.01755870,
 0.71487192,0.03088045,-0.04182733,-0.02369415,-0.01636438,-0.00447357,
 -0.00017239,0.03631389,-0.01364194,-0.01367927,-0.02576932,-0.09068132
 ,-0.01519677,-0.06755132,0.53606467,0.01165594,-0.02349491,-0.00317719
 ,-0.00884300,-0.00304856,-0.00252919,0.01771277,-0.00883305,0.00778964
 ,-0.00536518,-0.01514668,-0.06628045,-0.04037919,0.20592070,0.22118814
 ,-0.13857651,0.07472451,0.03952440,-0.03146227,0.03306953,0.01598376,-
 0.01502916,-0.00934639,-0.00441608,-0.01933443,-0.03513639,-0.01569815
 ,-0.12191988,-0.05601170,-0.02714381,0.54272607,0.00668701,-0.18622988
 ,-0.06158970,0.01232380,-0.00736710,-0.00703831,-0.00922129,0.05671591
 ,0.03216304,-0.01379528,-0.01817759,-0.01159617,0.01156003,-0.20045637
 ,-0.06885412,0.00387173,0.46222701,0.00840580,-0.06170989,-0.09503455,
 0.00664121,-0.00655368,0.00052463,-0.00435759,0.03162818,0.00611536,-0
 .00609662,-0.01074405,-0.00117143,0.00314404,-0.06698581,-0.09755016,-
 0.00416827,0.14045865,0.22207489,-0.11005473,-0.10448754,-0.04963248,-
 0.00728925,-0.02328202,-0.01082744,-0.00592385,-0.00225604,-0.00074133
 ,-0.00023047,0.00078536,0.00035258,-0.00237674,0.00283769,0.00135525,0
 .00955770,0.01749074,0.00856162,0.11315477,-0.10192386,-0.24717858,-0.
 09950425,0.00277472,0.00518339,-0.00122399,0.00055124,0.00079091,-0.00
 325126,-0.00095644,0.00039999,0.00113841,0.00251716,-0.00017398,-0.001
 69484,-0.00841186,-0.01166850,-0.00698212,0.10752176,0.25344639,-0.048
 02360,-0.09927464,-0.08432335,0.00196121,-0.00074360,0.00756318,0.0002
 3831,-0.00388017,0.00601548,-0.00033639,0.00116302,-0.00152140,0.00105
 699,-0.00221277,0.00224483,-0.00489062,-0.00665341,-0.00024614,0.05065
 453,0.10864336,0.07521497,-0.01247662,0.02024662,0.01025895,-0.1664564
 0,0.12597294,0.06420219,0.01140309,-0.00916314,-0.00466988,-0.00071833
 ,-0.00396665,-0.00187163,-0.00095747,-0.00043871,-0.00022701,-0.005014
 50,-0.00049039,0.00017959,0.00120666,0.00006846,-0.00008177,0.17261550
 ,-0.00623325,0.00893176,0.00009427,0.12936434,-0.19111806,-0.07837686,
 0.01257809,-0.01467675,-0.00666162,-0.00135084,-0.00159690,-0.00303321
 ,0.00033699,0.00056825,0.00087430,-0.00219593,0.00082418,-0.00399716,0
 .00015488,-0.00042805,0.00234540,-0.13300639,0.19787098,-0.00209708,-0
 .00000533,0.00846949,0.06616604,-0.07806112,-0.07583163,0.00591514,-0.
 00751683,-0.00537287,-0.00096281,-0.00249515,0.00330294,-0.00045716,0.
 00053763,-0.00107261,-0.00031785,-0.00362276,0.00738129,-0.00020022,0.
 00217550,-0.00411719,-0.06799734,0.08812128,0.06797202,-0.00092712,0.0
 0006190,0.00003876,-0.00214611,0.00403410,0.00213368,0.01067244,0.0153
 9361,0.00727208,-0.10640642,-0.10145278,-0.04851454,-0.00783753,-0.024
 03323,-0.01138869,-0.00537150,-0.00060790,-0.00021519,0.00002202,-0.00
 004106,-0.00003948,0.00056140,0.00051892,0.00026995,0.11018688,-0.0007
 4354,0.00050477,0.00086746,0.00147571,-0.00036788,-0.00248216,-0.00642
 385,-0.01407936,-0.00602709,-0.10481905,-0.24284912,-0.09952162,0.0024
 3184,0.00491927,-0.00199822,0.00112498,0.00120310,-0.00390662,-0.00005
 346,-0.00010831,0.00021234,-0.00032547,-0.00014136,-0.00048203,0.10709
 681,0.25168532,0.00032069,0.00064888,-0.00103615,0.00109442,-0.0019840
 5,0.00352814,-0.00304270,-0.00758269,-0.00526536,-0.05052982,-0.099401
 13,-0.08415768,0.00095384,-0.00125908,0.00777946,0.00016976,-0.0035955
 0,0.00736462,-0.00003969,0.00019197,-0.00043696,-0.00016644,-0.0005008
 6,0.00065036,0.05096373,0.11016494,0.07662933,-0.00101439,-0.00286165,
 -0.00120062,-0.00020801,-0.00101058,-0.00050807,-0.00605795,0.00102520
 ,0.00059093,-0.01158791,0.01958836,0.00962175,-0.17002568,0.12915605,0
 .06512263,0.01046411,-0.01208826,-0.00616467,0.00067017,-0.00049382,-0
 .00028353,-0.00000558,0.00006078,0.00002761,0.00119966,0.00004033,0.00
 009670,0.17558493,-0.00256058,-0.00139716,-0.00215994,0.00072943,0.000
 38476,0.00110539,-0.00183506,0.00086713,-0.00319559,-0.00647691,0.0089
 7117,0.00071564,0.12658913,-0.19537957,-0.07836587,0.01389424,-0.01247
 532,-0.00781246,0.00072383,-0.00011993,-0.00073472,0.00004994,-0.00008
 388,0.00020086,0.00013688,-0.00043296,0.00221047,-0.13302664,0.1995264
 4,-0.00079862,-0.00262366,0.00208000,0.00015537,0.00114277,-0.00154264
 ,-0.00026243,-0.00378016,0.00605425,-0.00315420,0.00022904,0.00813432,
 0.06351054,-0.07831939,-0.07613484,0.00709296,-0.00639484,-0.00034356,
 0.00041687,-0.00069949,0.00102517,0.00002302,0.00022176,-0.00043053,-0
 .00005440,0.00234294,-0.00410448,-0.06709626,0.08674481,0.06667274,-0.
 01295405,0.00275591,-0.00399187,-0.00850793,-0.01143779,-0.00575799,0.
 01073832,-0.00013433,-0.00014804,-0.01194741,0.01166164,0.00587104,-0.
 00532153,-0.00813185,0.00356840,-0.17383584,-0.01024652,0.00235201,0.0
 0147431,-0.00201466,0.00077410,0.00064162,-0.00005901,-0.00007814,0.00
 095573,0.00029253,-0.00012757,0.00126835,0.00230358,-0.00048129,0.6341
 3460,0.01929581,0.02073360,-0.00669790,-0.00486794,-0.01362800,-0.0051
 7890,-0.00147510,0.01908471,0.00809040,0.00639104,-0.01056318,-0.00380
 020,-0.02557459,0.01411233,-0.00766800,-0.01012104,-0.06110963,-0.0618
 1571,0.00134157,-0.00029708,-0.00091974,0.00143493,-0.00082836,0.00198
 482,-0.00122317,-0.00107957,0.00184877,-0.00088144,-0.00005276,-0.0011
 3466,0.01216229,0.59227036,0.02149489,-0.00258630,0.01538699,0.0085648
 4,0.00137720,0.00242538,0.00284288,-0.01769726,-0.00837606,-0.01027841
 ,0.00075236,0.00242411,-0.02142625,-0.00755645,0.01434005,0.00227002,-
 0.06274113,-0.04912953,-0.00020343,0.00090008,-0.00012750,0.00068498,0
 .00178673,-0.00155863,-0.00085475,0.00162782,-0.00160562,0.00006393,0.
 00107370,-0.00016598,0.02966802,-0.16725224,0.30797909,-0.00830334,-0.
 00310443,0.00222852,0.00345241,0.00518573,0.00413667,-0.00263946,-0.00
 199902,-0.00118677,0.00501780,-0.00340417,-0.00096245,-0.00889578,-0.0
 0232650,-0.00315865,-0.03176655,0.03369409,-0.02294258,0.00013778,0.00
 050270,-0.00117848,-0.00058280,0.00009553,-0.00045839,-0.00029593,0.00
 016520,-0.00012741,-0.00045358,-0.00018301,-0.00038512,-0.24683028,0.1
 7635002,-0.13977685,0.24980980,-0.00091987,-0.00126177,0.00207416,0.00
 523782,0.00630100,0.00135379,-0.00007399,-0.00972543,-0.00383873,-0.00
 209694,0.00261024,-0.00038664,-0.00421945,-0.00849923,0.00069067,0.023
 39125,-0.00485050,0.02820766,0.00009327,-0.00063859,0.00081935,-0.0001
 8127,0.00039453,-0.00031515,0.00012212,0.00037420,-0.00054154,0.000480
 78,0.00093169,0.00122194,0.17072418,-0.24036131,0.11734192,-0.20978213
 ,0.33980888,-0.00248950,-0.00152184,-0.00268574,-0.00361339,-0.0016657
 4,0.00007974,-0.00018718,0.00549754,0.00229769,0.00201019,-0.00084961,
 0.00071476,0.00379742,0.00354145,-0.00379979,-0.02201658,0.02920122,-0
 .00138487,0.00006436,0.00036059,-0.00064616,-0.00021290,-0.00047857,0.
 00018361,0.00014450,-0.00035313,0.00042185,-0.00019892,-0.00009591,-0.
 00068414,-0.13425290,0.11429761,-0.14925226,0.16612757,-0.22555847,0.1
 8780005,-0.01005076,0.00163903,0.00250262,0.00384381,0.00383387,0.0012
 8103,-0.00345590,0.00284838,0.00154812,0.00575646,-0.00518719,-0.00397
 972,-0.00885711,0.00143893,-0.00290947,-0.02043725,-0.03917776,0.01466
 065,-0.00034838,-0.00009435,0.00014875,-0.00021658,-0.00026412,0.00019
 024,-0.00061351,-0.00026203,0.00043448,0.00016587,-0.00034483,0.001033
 56,-0.18981587,-0.17283238,0.10695012,0.04134992,0.01722424,-0.0091726
 6,0.18267930,0.00407464,-0.00722987,0.00149086,0.00205891,0.00356079,-
 0.00011659,0.00191726,-0.00883923,-0.00340858,-0.00569492,0.00415711,0
 .00017759,-0.00054494,-0.00053124,0.00161859,-0.02885293,-0.01863532,0
 .03021301,-0.00087004,0.00079233,0.00123558,-0.00020088,0.00028367,-0.
 00052171,-0.00000621,0.00037189,-0.00020017,0.00001089,-0.00073960,0.0
 0104894,-0.16787597,-0.31828110,0.13297356,0.00480598,-0.08508371,0.07
 762488,0.19117820,0.43017427,-0.00516300,0.00277383,-0.00378135,-0.001
 35562,-0.00074586,0.00075246,-0.00155903,0.00553249,0.00235103,0.00448
 528,-0.00136020,-0.00003187,0.00209100,-0.00092370,-0.00279792,0.01361
 045,0.03026303,0.00139944,0.00023938,-0.00005398,-0.00064494,-0.000121
 77,-0.00039546,0.00042375,0.00024434,-0.00044462,0.00023248,-0.0000714
 7,0.00031363,-0.00056032,0.10260424,0.12824576,-0.13234004,-0.00231607
 ,0.07893105,-0.03304474,-0.11268773,-0.24213595,0.16804201\\-0.0000113
 5,0.00000887,-0.00002062,-0.00001642,0.00000633,-0.00000263,-0.0000053
 8,0.00000279,0.00000471,0.00003802,0.00000340,0.00000558,-0.00002034,-
 0.00002021,-0.00000536,-0.00001105,0.00001774,-0.00000060,0.00000926,0
 .00000052,0.00000240,0.00000637,-0.00001382,0.00000319,-0.00000846,0.0
 0000505,-0.00000230,-0.00000060,0.00001047,0.00000470,0.00001314,-0.00
 009544,0.00005392,-0.00000369,0.00002949,-0.00002461,0.00001048,0.0000
 4480,-0.00001839\\\@


 WERE I TO AWAIT PERFECTION, MY BOOK WOULD NEVER BE FINISHED.
                                    -- HISTORY OF CHINESE WRITING

                                       TAI T'UNG, 13TH CENTURY
 Job cpu time:       0 days  1 hours 41 minutes 56.7 seconds.
 Elapsed time:       0 days  0 hours 14 minutes 33.9 seconds.
 File lengths (MBytes):  RWF=    159 Int=      0 D2E=      0 Chk=      8 Scr=      1
 Normal termination of Gaussian 16 at Sat Jun 27 02:47:08 2020.
