 Entering Gaussian System, Link 0=/home/ubuntu/g16/g16
 Input=t-C6H4_UB3LYP-aug-cc-pVDZ-Opt.gjf
 Output=t-C6H4_UB3LYP-aug-cc-pVDZ-Opt.log
 Initial command:
 /home/ubuntu/g16/l1.exe "/home/ubuntu/g16/Gau-19033.inp" -scrdir="/home/ubuntu/g16/"
 Entering Link 1 = /home/ubuntu/g16/l1.exe PID=     19035.
  
 Copyright (c) 1988,1990,1992,1993,1995,1998,2003,2009,2016,
            Gaussian, Inc.  All Rights Reserved.
  
 This is part of the Gaussian(R) 16 program.  It is based on
 the Gaussian(R) 09 system (copyright 2009, Gaussian, Inc.),
 the Gaussian(R) 03 system (copyright 2003, Gaussian, Inc.),
 the Gaussian(R) 98 system (copyright 1998, Gaussian, Inc.),
 the Gaussian(R) 94 system (copyright 1995, Gaussian, Inc.),
 the Gaussian 92(TM) system (copyright 1992, Gaussian, Inc.),
 the Gaussian 90(TM) system (copyright 1990, Gaussian, Inc.),
 the Gaussian 88(TM) system (copyright 1988, Gaussian, Inc.),
 the Gaussian 86(TM) system (copyright 1986, Carnegie Mellon
 University), and the Gaussian 82(TM) system (copyright 1983,
 Carnegie Mellon University). Gaussian is a federally registered
 trademark of Gaussian, Inc.
  
 This software contains proprietary and confidential information,
 including trade secrets, belonging to Gaussian, Inc.
  
 This software is provided under written license and may be
 used, copied, transmitted, or stored only in accord with that
 written license.
  
 The following legend is applicable only to US Government
 contracts under FAR:
  
                    RESTRICTED RIGHTS LEGEND
  
 Use, reproduction and disclosure by the US Government is
 subject to restrictions as set forth in subparagraphs (a)
 and (c) of the Commercial Computer Software - Restricted
 Rights clause in FAR 52.227-19.
  
 Gaussian, Inc.
 340 Quinnipiac St., Bldg. 40, Wallingford CT 06492
  
  
 ---------------------------------------------------------------
 Warning -- This program may not be used in any manner that
 competes with the business of Gaussian, Inc. or will provide
 assistance to any competitor of Gaussian, Inc.  The licensee
 of this program is prohibited from giving any competitor of
 Gaussian, Inc. access to this program.  By using this program,
 the user acknowledges that Gaussian, Inc. is engaged in the
 business of creating and licensing software in the field of
 computational chemistry and represents and warrants to the
 licensee that it is not a competitor of Gaussian, Inc. and that
 it will not use this program in any manner prohibited above.
 ---------------------------------------------------------------
  

 Cite this work as:
 Gaussian 16, Revision A.03,
 M. J. Frisch, G. W. Trucks, H. B. Schlegel, G. E. Scuseria, 
 M. A. Robb, J. R. Cheeseman, G. Scalmani, V. Barone, 
 G. A. Petersson, H. Nakatsuji, X. Li, M. Caricato, A. V. Marenich, 
 J. Bloino, B. G. Janesko, R. Gomperts, B. Mennucci, H. P. Hratchian, 
 J. V. Ortiz, A. F. Izmaylov, J. L. Sonnenberg, D. Williams-Young, 
 F. Ding, F. Lipparini, F. Egidi, J. Goings, B. Peng, A. Petrone, 
 T. Henderson, D. Ranasinghe, V. G. Zakrzewski, J. Gao, N. Rega, 
 G. Zheng, W. Liang, M. Hada, M. Ehara, K. Toyota, R. Fukuda, 
 J. Hasegawa, M. Ishida, T. Nakajima, Y. Honda, O. Kitao, H. Nakai, 
 T. Vreven, K. Throssell, J. A. Montgomery, Jr., J. E. Peralta, 
 F. Ogliaro, M. J. Bearpark, J. J. Heyd, E. N. Brothers, K. N. Kudin, 
 V. N. Staroverov, T. A. Keith, R. Kobayashi, J. Normand, 
 K. Raghavachari, A. P. Rendell, J. C. Burant, S. S. Iyengar, 
 J. Tomasi, M. Cossi, J. M. Millam, M. Klene, C. Adamo, R. Cammi, 
 J. W. Ochterski, R. L. Martin, K. Morokuma, O. Farkas, 
 J. B. Foresman, and D. J. Fox, Gaussian, Inc., Wallingford CT, 2016.
 
 ******************************************
 Gaussian 16:  ES64L-G16RevA.03 25-Dec-2016
                27-Jun-2020 
 ******************************************
 %chk=t-C6H4_UB3LYP-aug-cc-pVDZ-Opt.chk
 %mem=500MW
 %nproc=7
 Will use up to    7 processors via shared memory.
 ----------------------------------------------------------------------
 #p opt=(maxcycles=777) freq ub3lyp/aug-cc-pVDZ pop=(Bonding,AllOrbital
 s,mk,no,nboread)
 ----------------------------------------------------------------------
 1/6=777,18=20,19=15,26=3,38=1/1,3;
 2/9=110,12=2,17=6,18=5,40=1/2;
 3/5=16,7=10,11=2,25=1,30=1,71=1,74=-5,116=2/1,2,3;
 4//1;
 5/5=2,38=5/2;
 6/7=2,8=2,9=2,10=2,15=8,20=1,22=-1,27=20,28=1,31=1,40=2,96=-1/1,2,7;
 7//1,2,3,16;
 1/6=777,18=20,19=15,26=3/3(2);
 2/9=110/2;
 99//99;
 2/9=110/2;
 3/5=16,7=10,11=2,25=1,30=1,71=1,74=-5,116=2/1,2,3;
 4/5=5,16=3,69=1/1;
 5/5=2,38=5/2;
 7//1,2,3,16;
 1/6=777,18=20,19=15,26=3/3(-5);
 2/9=110/2;
 6/7=2,8=2,9=2,10=2,15=8,19=2,20=1,22=-1,27=20,28=1,31=1,40=2,96=-1/1,2,7;
 99/9=1/99;
 Leave Link    1 at Sat Jun 27 03:08:52 2020, MaxMem=   524288000 cpu:               0.4 elap:               0.1
 (Enter /home/ubuntu/g16/l101.exe)
 -------------------------
 t-C6H4_UB3LYP-aug-cc-pVDZ
 -------------------------
 Symbolic Z-matrix:
 Charge =  0 Multiplicity = 3
 C                    -1.17792  -0.38398  -0.05818 
 C                    -0.67018   0.76199  -0.04026 
 C                     0.68008   1.07936   0.00567 
 C                     1.46114  -0.10044   0.03158 
 C                     0.89026  -1.38795   0.01128 
 C                    -0.50825  -1.59919  -0.03611 
 H                     1.11962   2.07466   0.02135 
 H                     2.54862  -0.00389   0.069 
 H                     1.54862  -2.25877   0.03344 
 H                    -0.95308  -2.59211  -0.05166 
 
 ITRead=  0  0  0  0  0  0  0  0  0  0
 MicOpt= -1 -1 -1 -1 -1 -1 -1 -1 -1 -1
 NAtoms=     10 NQM=       10 NQMF=       0 NMMI=      0 NMMIF=      0
                NMic=       0 NMicF=      0.
                    Isotopes and Nuclear Properties:
 (Nuclear quadrupole moments (NQMom) in fm**2, nuclear magnetic moments (NMagM)
  in nuclear magnetons)

  Atom         1           2           3           4           5           6           7           8           9          10
 IAtWgt=          12          12          12          12          12          12           1           1           1           1
 AtmWgt=  12.0000000  12.0000000  12.0000000  12.0000000  12.0000000  12.0000000   1.0078250   1.0078250   1.0078250   1.0078250
 NucSpn=           0           0           0           0           0           0           1           1           1           1
 AtZEff=  -0.0000000  -0.0000000  -0.0000000  -0.0000000  -0.0000000  -0.0000000  -0.0000000  -0.0000000  -0.0000000  -0.0000000
 NQMom=    0.0000000   0.0000000   0.0000000   0.0000000   0.0000000   0.0000000   0.0000000   0.0000000   0.0000000   0.0000000
 NMagM=    0.0000000   0.0000000   0.0000000   0.0000000   0.0000000   0.0000000   2.7928460   2.7928460   2.7928460   2.7928460
 AtZNuc=   6.0000000   6.0000000   6.0000000   6.0000000   6.0000000   6.0000000   1.0000000   1.0000000   1.0000000   1.0000000
 Leave Link  101 at Sat Jun 27 03:08:52 2020, MaxMem=   524288000 cpu:               1.2 elap:               0.2
 (Enter /home/ubuntu/g16/l103.exe)

 GradGradGradGradGradGradGradGradGradGradGradGradGradGradGradGradGradGrad
 Berny optimization.
 Initialization pass.
                           ----------------------------
                           !    Initial Parameters    !
                           ! (Angstroms and Degrees)  !
 --------------------------                            --------------------------
 ! Name  Definition              Value          Derivative Info.                !
 --------------------------------------------------------------------------------
 ! R1    R(1,2)                  1.2535         estimate D2E/DX2                !
 ! R2    R(1,6)                  1.3877         estimate D2E/DX2                !
 ! R3    R(2,3)                  1.3878         estimate D2E/DX2                !
 ! R4    R(3,4)                  1.4152         estimate D2E/DX2                !
 ! R5    R(3,7)                  1.0881         estimate D2E/DX2                !
 ! R6    R(4,5)                  1.4085         estimate D2E/DX2                !
 ! R7    R(4,8)                  1.0924         estimate D2E/DX2                !
 ! R8    R(5,6)                  1.4152         estimate D2E/DX2                !
 ! R9    R(5,9)                  1.0919         estimate D2E/DX2                !
 ! R10   R(6,10)                 1.0881         estimate D2E/DX2                !
 ! A1    A(2,1,6)              127.2192         estimate D2E/DX2                !
 ! A2    A(1,2,3)              127.1292         estimate D2E/DX2                !
 ! A3    A(2,3,4)              110.3006         estimate D2E/DX2                !
 ! A4    A(2,3,7)              127.06           estimate D2E/DX2                !
 ! A5    A(4,3,7)              122.6394         estimate D2E/DX2                !
 ! A6    A(3,4,5)              122.554          estimate D2E/DX2                !
 ! A7    A(3,4,8)              118.4495         estimate D2E/DX2                !
 ! A8    A(5,4,8)              118.9964         estimate D2E/DX2                !
 ! A9    A(4,5,6)              122.5103         estimate D2E/DX2                !
 ! A10   A(4,5,9)              118.9685         estimate D2E/DX2                !
 ! A11   A(6,5,9)              118.5212         estimate D2E/DX2                !
 ! A12   A(1,6,5)              110.2866         estimate D2E/DX2                !
 ! A13   A(1,6,10)             126.9834         estimate D2E/DX2                !
 ! A14   A(5,6,10)             122.7301         estimate D2E/DX2                !
 ! D1    D(6,1,2,3)              0.0082         estimate D2E/DX2                !
 ! D2    D(2,1,6,5)             -0.012          estimate D2E/DX2                !
 ! D3    D(2,1,6,10)           179.9906         estimate D2E/DX2                !
 ! D4    D(1,2,3,4)             -0.0088         estimate D2E/DX2                !
 ! D5    D(1,2,3,7)           -179.9891         estimate D2E/DX2                !
 ! D6    D(2,3,4,5)              0.0156         estimate D2E/DX2                !
 ! D7    D(2,3,4,8)           -179.9699         estimate D2E/DX2                !
 ! D8    D(7,3,4,5)            179.997          estimate D2E/DX2                !
 ! D9    D(7,3,4,8)              0.0115         estimate D2E/DX2                !
 ! D10   D(3,4,5,6)             -0.0228         estimate D2E/DX2                !
 ! D11   D(3,4,5,9)           -179.9855         estimate D2E/DX2                !
 ! D12   D(8,4,5,6)            179.9626         estimate D2E/DX2                !
 ! D13   D(8,4,5,9)             -0.0001         estimate D2E/DX2                !
 ! D14   D(4,5,6,1)              0.0187         estimate D2E/DX2                !
 ! D15   D(4,5,6,10)          -179.9838         estimate D2E/DX2                !
 ! D16   D(9,5,6,1)            179.9815         estimate D2E/DX2                !
 ! D17   D(9,5,6,10)            -0.0209         estimate D2E/DX2                !
 --------------------------------------------------------------------------------
 Trust Radius=3.00D-01 FncErr=1.00D-07 GrdErr=1.00D-06 EigMax=2.50D+02 EigMin=1.00D-04
 Number of steps in this run=    100 maximum allowed number of steps=    100.
 GradGradGradGradGradGradGradGradGradGradGradGradGradGradGradGradGradGrad

 Leave Link  103 at Sat Jun 27 03:08:52 2020, MaxMem=   524288000 cpu:               0.0 elap:               0.0
 (Enter /home/ubuntu/g16/l202.exe)
                          Input orientation:                          
 ---------------------------------------------------------------------
 Center     Atomic      Atomic             Coordinates (Angstroms)
 Number     Number       Type             X           Y           Z
 ---------------------------------------------------------------------
      1          6           0       -1.177920   -0.383980   -0.058180
      2          6           0       -0.670180    0.761990   -0.040260
      3          6           0        0.680080    1.079360    0.005670
      4          6           0        1.461140   -0.100440    0.031580
      5          6           0        0.890260   -1.387950    0.011280
      6          6           0       -0.508250   -1.599190   -0.036110
      7          1           0        1.119620    2.074660    0.021350
      8          1           0        2.548620   -0.003890    0.069000
      9          1           0        1.548620   -2.258770    0.033440
     10          1           0       -0.953080   -2.592110   -0.051660
 ---------------------------------------------------------------------
                    Distance matrix (angstroms):
                    1          2          3          4          5
     1  C    0.000000
     2  C    1.253542   0.000000
     3  C    2.365926   1.387817   0.000000
     4  C    2.655765   2.300320   1.415152   0.000000
     5  C    2.300032   2.657042   2.476252   1.408545   0.000000
     6  C    1.387689   2.366730   2.930615   2.475748   1.415167
     7  H    3.365996   2.220424   1.088147   2.201772   3.470213
     8  H    3.748032   3.310466   2.160760   1.092399   2.160813
     9  H    3.310174   3.748799   3.449383   2.160103   1.091905
    10  H    2.219557   3.366029   4.018730   3.470419   2.202695
                    6          7          8          9         10
     6  C    0.000000
     7  H    4.018761   0.000000
     8  H    3.449708   2.522832   0.000000
     9  H    2.161156   4.354630   2.466931   0.000000
    10  H    1.088120   5.106874   4.356070   2.525245   0.000000
 Stoichiometry    C6H4(3)
 Framework group  C1[X(C6H4)]
 Deg. of freedom    24
 Full point group                 C1      NOp   1
 Largest Abelian subgroup         C1      NOp   1
 Largest concise Abelian subgroup C1      NOp   1
                         Standard orientation:                         
 ---------------------------------------------------------------------
 Center     Atomic      Atomic             Coordinates (Angstroms)
 Number     Number       Type             X           Y           Z
 ---------------------------------------------------------------------
      1          6           0        0.626097   -1.239157    0.000006
      2          6           0       -0.627446   -1.239335    0.000024
      3          6           0       -1.465310   -0.132981   -0.000069
      4          6           0       -0.703658    1.059722    0.000009
      5          6           0        0.704887    1.059526   -0.000164
      6          6           0        1.465305   -0.133983    0.000046
      7          1           0       -2.553456   -0.134451    0.000111
      8          1           0       -1.233071    2.015262    0.000455
      9          1           0        1.233860    2.014745    0.000151
     10          1           0        2.553417   -0.138306    0.000173
 ---------------------------------------------------------------------
 Rotational constants (GHZ):           6.9928178           5.6738235           3.1323232
 Leave Link  202 at Sat Jun 27 03:08:52 2020, MaxMem=   524288000 cpu:               0.0 elap:               0.0
 (Enter /home/ubuntu/g16/l301.exe)
 Standard basis: Aug-CC-pVDZ (5D, 7F)
 Ernie: Thresh=  0.10000D-02 Tol=  0.10000D-05 Strict=F.
 Ernie:  12 primitive shells out of 178 were deleted.
 There are   186 symmetry adapted cartesian basis functions of A   symmetry.
 There are   174 symmetry adapted basis functions of A   symmetry.
   174 basis functions,   302 primitive gaussians,   186 cartesian basis functions
    21 alpha electrons       19 beta electrons
       nuclear repulsion energy       186.9994311736 Hartrees.
 IExCor=  402 DFT=T Ex+Corr=B3LYP ExCW=0 ScaHFX=  0.200000
 ScaDFX=  0.800000  0.720000  1.000000  0.810000 ScalE2=  1.000000  1.000000
 IRadAn=      5 IRanWt=     -1 IRanGd=            0 ICorTp=0 IEmpDi=  4
 NAtoms=   10 NActive=   10 NUniq=   10 SFac= 1.00D+00 NAtFMM=   60 NAOKFM=F Big=F
 Integral buffers will be    131072 words long.
 Raffenetti 2 integral format.
 Two-electron integral symmetry is turned on.
 Leave Link  301 at Sat Jun 27 03:08:52 2020, MaxMem=   524288000 cpu:               0.2 elap:               0.0
 (Enter /home/ubuntu/g16/l302.exe)
 NPDir=0 NMtPBC=     1 NCelOv=     1 NCel=       1 NClECP=     1 NCelD=      1
         NCelK=      1 NCelE2=     1 NClLst=     1 CellRange=     0.0.
 One-electron integrals computed using PRISM.
 One-electron integral symmetry used in STVInt
 NBasis=   174 RedAO= T EigKep=  4.28D-06  NBF=   174
 NBsUse=   174 1.00D-06 EigRej= -1.00D+00 NBFU=   174
 Precomputing XC quadrature grid using
 IXCGrd= 4 IRadAn=           5 IRanWt=          -1 IRanGd=           0 AccXCQ= 0.00D+00.
 Generated NRdTot=       0 NPtTot=           0 NUsed=           0 NTot=          32
 NSgBfM=   186   186   186   186   186 MxSgAt=    10 MxSgA2=    10.
 Leave Link  302 at Sat Jun 27 03:08:52 2020, MaxMem=   524288000 cpu:               1.5 elap:               0.2
 (Enter /home/ubuntu/g16/l303.exe)
 DipDrv:  MaxL=1.
 Leave Link  303 at Sat Jun 27 03:08:52 2020, MaxMem=   524288000 cpu:               0.2 elap:               0.0
 (Enter /home/ubuntu/g16/l401.exe)
 ExpMin= 2.97D-02 ExpMax= 6.67D+03 ExpMxC= 2.28D+02 IAcc=3 IRadAn=         5 AccDes= 0.00D+00
 Harris functional with IExCor=  402 and IRadAn=       5 diagonalized for initial guess.
 HarFok:  IExCor=  402 AccDes= 0.00D+00 IRadAn=         5 IDoV= 1 UseB2=F ITyADJ=14
 ICtDFT=  3500011 ScaDFX=  1.000000  1.000000  1.000000  1.000000
 FoFCou: FMM=F IPFlag=           0 FMFlag=      100000 FMFlg1=           0
         NFxFlg=           0 DoJE=T BraDBF=F KetDBF=T FulRan=T
         wScrn=  0.000000 ICntrl=       500 IOpCl=  0 I1Cent=   200000004 NGrid=           0
         NMat0=    1 NMatS0=      1 NMatT0=    0 NMatD0=    1 NMtDS0=    0 NMtDT0=    0
 Petite list used in FoFCou.
 Harris En= -230.806706695661    
 JPrj=0 DoOrth=F DoCkMO=F.
 Initial guess <Sx>= 0.0000 <Sy>= 0.0000 <Sz>= 1.0000 <S**2>= 2.0000 S= 1.0000
 Leave Link  401 at Sat Jun 27 03:08:54 2020, MaxMem=   524288000 cpu:               8.2 elap:               1.2
 (Enter /home/ubuntu/g16/l502.exe)
 Keep R1 and R2 ints in memory in canonical form, NReq=238905191.
 FoFCou: FMM=F IPFlag=           0 FMFlag=           0 FMFlg1=           0
         NFxFlg=           0 DoJE=F BraDBF=F KetDBF=F FulRan=T
         wScrn=  0.000000 ICntrl=       600 IOpCl=  0 I1Cent=           0 NGrid=           0
         NMat0=    1 NMatS0=  15225 NMatT0=    0 NMatD0=    1 NMtDS0=    0 NMtDT0=    0
 Symmetry not used in FoFCou.
 Two-electron integral symmetry not used.
 UHF open shell SCF:
 Using DIIS extrapolation, IDIIS=  1040.
 NGot=   524288000 LenX=   292399830 LenY=   292364793
 Requested convergence on RMS density matrix=1.00D-08 within 128 cycles.
 Requested convergence on MAX density matrix=1.00D-06.
 Requested convergence on             energy=1.00D-06.
 No special actions if energy rises.

 Cycle   1  Pass 1  IDiag  1:
 E= -230.642790490952    
 DIIS: error= 2.45D-02 at cycle   1 NSaved=   1.
 NSaved= 1 IEnMin= 1 EnMin= -230.642790490952     IErMin= 1 ErrMin= 2.45D-02
 ErrMax= 2.45D-02  0.00D+00 EMaxC= 1.00D-01 BMatC= 5.03D-01 BMatP= 5.03D-01
 IDIUse=3 WtCom= 7.55D-01 WtEn= 2.45D-01
 Coeff-Com:  0.100D+01
 Coeff-En:   0.100D+01
 Coeff:      0.100D+01
 Gap=    -0.020 Goal=   None    Shift=    0.000
 Gap=    -0.106 Goal=   None    Shift=    0.000
 GapD=   -0.106 DampG=0.250 DampE=0.500 DampFc=0.2500 IDamp=-1.
 Damping current iteration by 2.50D-01
 RMSDP=5.42D-02 MaxDP=2.34D+00              OVMax= 1.00D+00

 Cycle   2  Pass 1  IDiag  1:
 E= -230.680780463256     Delta-E=       -0.037989972304 Rises=F Damp=T
 DIIS: error= 1.17D-02 at cycle   2 NSaved=   2.
 NSaved= 2 IEnMin= 2 EnMin= -230.680780463256     IErMin= 2 ErrMin= 1.17D-02
 ErrMax= 1.17D-02  0.00D+00 EMaxC= 1.00D-01 BMatC= 9.49D-02 BMatP= 5.03D-01
 IDIUse=3 WtCom= 8.83D-01 WtEn= 1.17D-01
 Coeff-Com: -0.190D+00 0.119D+01
 Coeff-En:   0.274D+00 0.726D+00
 Coeff:     -0.136D+00 0.114D+01
 Gap=     0.021 Goal=   None    Shift=    0.000
 Gap=     0.043 Goal=   None    Shift=    0.000
 RMSDP=2.55D-02 MaxDP=6.98D-01 DE=-3.80D-02 OVMax= 9.87D-01

 Cycle   3  Pass 1  IDiag  1:
 E= -230.725275337391     Delta-E=       -0.044494874135 Rises=F Damp=F
 DIIS: error= 2.58D-02 at cycle   3 NSaved=   3.
 NSaved= 3 IEnMin= 3 EnMin= -230.725275337391     IErMin= 2 ErrMin= 1.17D-02
 ErrMax= 2.58D-02  0.00D+00 EMaxC= 1.00D-01 BMatC= 2.33D-01 BMatP= 9.49D-02
 IDIUse=2 WtCom= 0.00D+00 WtEn= 1.00D+00
 Coeff-En:   0.000D+00 0.271D+00 0.729D+00
 Coeff:      0.000D+00 0.271D+00 0.729D+00
 Gap=     0.002 Goal=   None    Shift=    0.000
 Gap=    -0.075 Goal=   None    Shift=    0.000
 RMSDP=1.01D-02 MaxDP=2.70D-01 DE=-4.45D-02 OVMax= 9.99D-01

 Cycle   4  Pass 1  IDiag  1:
 E= -230.529937751873     Delta-E=        0.195337585518 Rises=F Damp=F
 DIIS: error= 5.10D-02 at cycle   4 NSaved=   4.
 NSaved= 4 IEnMin= 3 EnMin= -230.725275337391     IErMin= 2 ErrMin= 1.17D-02
 ErrMax= 5.10D-02  0.00D+00 EMaxC= 1.00D-01 BMatC= 1.02D+00 BMatP= 9.49D-02
 IDIUse=2 WtCom= 0.00D+00 WtEn= 1.00D+00
 Coeff-En:   0.000D+00 0.000D+00 0.684D+00 0.316D+00
 Coeff:      0.000D+00 0.000D+00 0.684D+00 0.316D+00
 Gap=     0.074 Goal=   None    Shift=    0.000
 Gap=     0.074 Goal=   None    Shift=    0.000
 RMSDP=5.80D-03 MaxDP=1.60D-01 DE= 1.95D-01 OVMax= 2.14D-01

 Cycle   5  Pass 1  IDiag  1:
 E= -230.829338784674     Delta-E=       -0.299401032801 Rises=F Damp=F
 DIIS: error= 1.53D-02 at cycle   5 NSaved=   5.
 NSaved= 5 IEnMin= 5 EnMin= -230.829338784674     IErMin= 2 ErrMin= 1.17D-02
 ErrMax= 1.53D-02  0.00D+00 EMaxC= 1.00D-01 BMatC= 8.87D-02 BMatP= 9.49D-02
 IDIUse=3 WtCom= 8.47D-01 WtEn= 1.53D-01
 Coeff-Com: -0.153D+00 0.348D+00 0.255D+00-0.166D+00 0.717D+00
 Coeff-En:   0.000D+00 0.000D+00 0.790D-01 0.000D+00 0.921D+00
 Coeff:     -0.130D+00 0.295D+00 0.228D+00-0.141D+00 0.748D+00
 Gap=     0.126 Goal=   None    Shift=    0.000
 Gap=     0.056 Goal=   None    Shift=    0.000
 RMSDP=2.66D-03 MaxDP=9.59D-02 DE=-2.99D-01 OVMax= 7.04D-02

 Cycle   6  Pass 1  IDiag  1:
 E= -230.857751093943     Delta-E=       -0.028412309269 Rises=F Damp=F
 DIIS: error= 2.81D-03 at cycle   6 NSaved=   6.
 NSaved= 6 IEnMin= 6 EnMin= -230.857751093943     IErMin= 6 ErrMin= 2.81D-03
 ErrMax= 2.81D-03  0.00D+00 EMaxC= 1.00D-01 BMatC= 3.20D-03 BMatP= 8.87D-02
 IDIUse=3 WtCom= 9.72D-01 WtEn= 2.81D-02
 Coeff-Com: -0.522D-01 0.142D+00 0.646D-01-0.309D-01-0.571D-02 0.882D+00
 Coeff-En:   0.000D+00 0.000D+00 0.000D+00 0.000D+00 0.000D+00 0.100D+01
 Coeff:     -0.507D-01 0.138D+00 0.628D-01-0.300D-01-0.555D-02 0.886D+00
 Gap=     0.136 Goal=   None    Shift=    0.000
 Gap=     0.091 Goal=   None    Shift=    0.000
 RMSDP=1.27D-03 MaxDP=3.38D-02 DE=-2.84D-02 OVMax= 1.67D-02

 Cycle   7  Pass 1  IDiag  1:
 E= -230.858477454519     Delta-E=       -0.000726360576 Rises=F Damp=F
 DIIS: error= 2.75D-03 at cycle   7 NSaved=   7.
 NSaved= 7 IEnMin= 7 EnMin= -230.858477454519     IErMin= 7 ErrMin= 2.75D-03
 ErrMax= 2.75D-03  0.00D+00 EMaxC= 1.00D-01 BMatC= 2.28D-03 BMatP= 3.20D-03
 IDIUse=3 WtCom= 9.73D-01 WtEn= 2.75D-02
 Coeff-Com: -0.330D-01 0.779D-01 0.404D-01-0.125D-01-0.947D-01 0.243D+00
 Coeff-Com:  0.778D+00
 Coeff-En:   0.000D+00 0.000D+00 0.000D+00 0.000D+00 0.000D+00 0.000D+00
 Coeff-En:   0.100D+01
 Coeff:     -0.321D-01 0.758D-01 0.393D-01-0.121D-01-0.921D-01 0.237D+00
 Coeff:      0.784D+00
 Gap=     0.141 Goal=   None    Shift=    0.000
 Gap=     0.099 Goal=   None    Shift=    0.000
 RMSDP=6.00D-04 MaxDP=1.50D-02 DE=-7.26D-04 OVMax= 1.57D-02

 Cycle   8  Pass 1  IDiag  1:
 E= -230.859101148919     Delta-E=       -0.000623694400 Rises=F Damp=F
 DIIS: error= 1.70D-03 at cycle   8 NSaved=   8.
 NSaved= 8 IEnMin= 8 EnMin= -230.859101148919     IErMin= 8 ErrMin= 1.70D-03
 ErrMax= 1.70D-03  0.00D+00 EMaxC= 1.00D-01 BMatC= 9.14D-04 BMatP= 2.28D-03
 IDIUse=3 WtCom= 9.83D-01 WtEn= 1.70D-02
 Coeff-Com:  0.638D-03-0.185D-02 0.302D-02 0.105D-01-0.127D+00-0.269D+00
 Coeff-Com:  0.579D+00 0.805D+00
 Coeff-En:   0.000D+00 0.000D+00 0.000D+00 0.000D+00 0.000D+00 0.000D+00
 Coeff-En:   0.000D+00 0.100D+01
 Coeff:      0.627D-03-0.182D-02 0.297D-02 0.103D-01-0.125D+00-0.264D+00
 Coeff:      0.569D+00 0.808D+00
 Gap=     0.149 Goal=   None    Shift=    0.000
 Gap=     0.109 Goal=   None    Shift=    0.000
 RMSDP=5.61D-04 MaxDP=1.48D-02 DE=-6.24D-04 OVMax= 1.11D-02

 Cycle   9  Pass 1  IDiag  1:
 E= -230.859412566996     Delta-E=       -0.000311418077 Rises=F Damp=F
 DIIS: error= 1.56D-04 at cycle   9 NSaved=   9.
 NSaved= 9 IEnMin= 9 EnMin= -230.859412566996     IErMin= 9 ErrMin= 1.56D-04
 ErrMax= 1.56D-04  0.00D+00 EMaxC= 1.00D-01 BMatC= 6.17D-06 BMatP= 9.14D-04
 IDIUse=3 WtCom= 9.98D-01 WtEn= 1.56D-03
 Coeff-Com:  0.194D-02-0.344D-02-0.582D-04 0.313D-03 0.817D-02-0.779D-02
 Coeff-Com: -0.694D-01-0.352D-02 0.107D+01
 Coeff-En:   0.000D+00 0.000D+00 0.000D+00 0.000D+00 0.000D+00 0.000D+00
 Coeff-En:   0.000D+00 0.000D+00 0.100D+01
 Coeff:      0.193D-02-0.343D-02-0.581D-04 0.312D-03 0.816D-02-0.778D-02
 Coeff:     -0.693D-01-0.351D-02 0.107D+01
 Gap=     0.150 Goal=   None    Shift=    0.000
 Gap=     0.109 Goal=   None    Shift=    0.000
 RMSDP=7.12D-05 MaxDP=2.06D-03 DE=-3.11D-04 OVMax= 2.67D-03

 Cycle  10  Pass 1  IDiag  1:
 E= -230.859417577785     Delta-E=       -0.000005010789 Rises=F Damp=F
 DIIS: error= 3.85D-05 at cycle  10 NSaved=  10.
 NSaved=10 IEnMin=10 EnMin= -230.859417577785     IErMin=10 ErrMin= 3.85D-05
 ErrMax= 3.85D-05  0.00D+00 EMaxC= 1.00D-01 BMatC= 5.33D-07 BMatP= 6.17D-06
 IDIUse=1 WtCom= 1.00D+00 WtEn= 0.00D+00
 Coeff-Com: -0.172D-03 0.810D-03-0.635D-04-0.449D-03 0.842D-02 0.213D-01
 Coeff-Com: -0.526D-01-0.521D-01 0.110D+00 0.965D+00
 Coeff:     -0.172D-03 0.810D-03-0.635D-04-0.449D-03 0.842D-02 0.213D-01
 Coeff:     -0.526D-01-0.521D-01 0.110D+00 0.965D+00
 Gap=     0.149 Goal=   None    Shift=    0.000
 Gap=     0.109 Goal=   None    Shift=    0.000
 RMSDP=1.84D-05 MaxDP=5.44D-04 DE=-5.01D-06 OVMax= 7.25D-04

 Cycle  11  Pass 1  IDiag  1:
 E= -230.859417871952     Delta-E=       -0.000000294167 Rises=F Damp=F
 DIIS: error= 3.32D-05 at cycle  11 NSaved=  11.
 NSaved=11 IEnMin=11 EnMin= -230.859417871952     IErMin=11 ErrMin= 3.32D-05
 ErrMax= 3.32D-05  0.00D+00 EMaxC= 1.00D-01 BMatC= 3.99D-07 BMatP= 5.33D-07
 IDIUse=1 WtCom= 1.00D+00 WtEn= 0.00D+00
 Coeff-Com: -0.360D-03 0.923D-03 0.528D-04-0.310D-03 0.459D-02 0.124D-01
 Coeff-Com: -0.260D-01-0.317D-01-0.195D-01 0.580D+00 0.480D+00
 Coeff:     -0.360D-03 0.923D-03 0.528D-04-0.310D-03 0.459D-02 0.124D-01
 Coeff:     -0.260D-01-0.317D-01-0.195D-01 0.580D+00 0.480D+00
 Gap=     0.149 Goal=   None    Shift=    0.000
 Gap=     0.109 Goal=   None    Shift=    0.000
 RMSDP=5.80D-06 MaxDP=2.07D-04 DE=-2.94D-07 OVMax= 3.27D-04

 Cycle  12  Pass 1  IDiag  1:
 E= -230.859418001634     Delta-E=       -0.000000129682 Rises=F Damp=F
 DIIS: error= 1.19D-05 at cycle  12 NSaved=  12.
 NSaved=12 IEnMin=12 EnMin= -230.859418001634     IErMin=12 ErrMin= 1.19D-05
 ErrMax= 1.19D-05  0.00D+00 EMaxC= 1.00D-01 BMatC= 6.81D-08 BMatP= 3.99D-07
 IDIUse=1 WtCom= 1.00D+00 WtEn= 0.00D+00
 Coeff-Com: -0.235D-03 0.383D-03 0.135D-03-0.840D-04 0.316D-03-0.930D-03
 Coeff-Com:  0.178D-02-0.325D-02-0.403D-01 0.230D-01 0.280D+00 0.739D+00
 Coeff:     -0.235D-03 0.383D-03 0.135D-03-0.840D-04 0.316D-03-0.930D-03
 Coeff:      0.178D-02-0.325D-02-0.403D-01 0.230D-01 0.280D+00 0.739D+00
 Gap=     0.150 Goal=   None    Shift=    0.000
 Gap=     0.109 Goal=   None    Shift=    0.000
 RMSDP=3.64D-06 MaxDP=9.05D-05 DE=-1.30D-07 OVMax= 2.70D-04

 Cycle  13  Pass 1  IDiag  1:
 E= -230.859418037646     Delta-E=       -0.000000036012 Rises=F Damp=F
 DIIS: error= 2.93D-06 at cycle  13 NSaved=  13.
 NSaved=13 IEnMin=13 EnMin= -230.859418037646     IErMin=13 ErrMin= 2.93D-06
 ErrMax= 2.93D-06  0.00D+00 EMaxC= 1.00D-01 BMatC= 4.45D-09 BMatP= 6.81D-08
 IDIUse=1 WtCom= 1.00D+00 WtEn= 0.00D+00
 Coeff-Com:  0.240D-04-0.671D-04-0.113D-04-0.910D-05-0.210D-03-0.111D-02
 Coeff-Com:  0.164D-02 0.697D-03 0.433D-02-0.436D-01-0.422D-01 0.628D-02
 Coeff-Com:  0.107D+01
 Coeff:      0.240D-04-0.671D-04-0.113D-04-0.910D-05-0.210D-03-0.111D-02
 Coeff:      0.164D-02 0.697D-03 0.433D-02-0.436D-01-0.422D-01 0.628D-02
 Coeff:      0.107D+01
 Gap=     0.150 Goal=   None    Shift=    0.000
 Gap=     0.109 Goal=   None    Shift=    0.000
 RMSDP=1.79D-06 MaxDP=3.30D-05 DE=-3.60D-08 OVMax= 1.44D-04

 Cycle  14  Pass 1  IDiag  1:
 E= -230.859418042222     Delta-E=       -0.000000004576 Rises=F Damp=F
 DIIS: error= 9.92D-07 at cycle  14 NSaved=  14.
 NSaved=14 IEnMin=14 EnMin= -230.859418042222     IErMin=14 ErrMin= 9.92D-07
 ErrMax= 9.92D-07  0.00D+00 EMaxC= 1.00D-01 BMatC= 9.01D-10 BMatP= 4.45D-09
 IDIUse=1 WtCom= 1.00D+00 WtEn= 0.00D+00
 Coeff-Com:  0.412D-04-0.717D-04-0.291D-04 0.106D-04-0.133D-03-0.174D-03
 Coeff-Com:  0.341D-03 0.723D-03 0.608D-02-0.201D-01-0.506D-01-0.886D-01
 Coeff-Com:  0.433D+00 0.719D+00
 Coeff:      0.412D-04-0.717D-04-0.291D-04 0.106D-04-0.133D-03-0.174D-03
 Coeff:      0.341D-03 0.723D-03 0.608D-02-0.201D-01-0.506D-01-0.886D-01
 Coeff:      0.433D+00 0.719D+00
 Gap=     0.150 Goal=   None    Shift=    0.000
 Gap=     0.109 Goal=   None    Shift=    0.000
 RMSDP=3.93D-07 MaxDP=1.45D-05 DE=-4.58D-09 OVMax= 4.61D-05

 Cycle  15  Pass 1  IDiag  1:
 E= -230.859418042848     Delta-E=       -0.000000000627 Rises=F Damp=F
 DIIS: error= 6.75D-07 at cycle  15 NSaved=  15.
 NSaved=15 IEnMin=15 EnMin= -230.859418042848     IErMin=15 ErrMin= 6.75D-07
 ErrMax= 6.75D-07  0.00D+00 EMaxC= 1.00D-01 BMatC= 3.21D-10 BMatP= 9.01D-10
 IDIUse=1 WtCom= 1.00D+00 WtEn= 0.00D+00
 Coeff-Com:  0.121D-04-0.141D-04-0.121D-04 0.983D-05-0.137D-04 0.247D-03
 Coeff-Com: -0.211D-03 0.354D-03 0.833D-03 0.859D-03-0.968D-02-0.337D-01
 Coeff-Com: -0.887D-01 0.298D+00 0.832D+00
 Coeff:      0.121D-04-0.141D-04-0.121D-04 0.983D-05-0.137D-04 0.247D-03
 Coeff:     -0.211D-03 0.354D-03 0.833D-03 0.859D-03-0.968D-02-0.337D-01
 Coeff:     -0.887D-01 0.298D+00 0.832D+00
 Gap=     0.150 Goal=   None    Shift=    0.000
 Gap=     0.109 Goal=   None    Shift=    0.000
 RMSDP=2.87D-07 MaxDP=8.45D-06 DE=-6.27D-10 OVMax= 2.69D-05

 Cycle  16  Pass 1  IDiag  1:
 E= -230.859418043063     Delta-E=       -0.000000000215 Rises=F Damp=F
 DIIS: error= 1.88D-07 at cycle  16 NSaved=  16.
 NSaved=16 IEnMin=16 EnMin= -230.859418043063     IErMin=16 ErrMin= 1.88D-07
 ErrMax= 1.88D-07  0.00D+00 EMaxC= 1.00D-01 BMatC= 1.86D-11 BMatP= 3.21D-10
 IDIUse=1 WtCom= 1.00D+00 WtEn= 0.00D+00
 Coeff-Com: -0.433D-05 0.477D-05 0.363D-05-0.267D-05 0.284D-04 0.144D-04
 Coeff-Com: -0.254D-04 0.111D-04-0.595D-03 0.152D-02 0.499D-02 0.845D-02
 Coeff-Com: -0.598D-01-0.753D-01 0.553D-01 0.107D+01
 Coeff:     -0.433D-05 0.477D-05 0.363D-05-0.267D-05 0.284D-04 0.144D-04
 Coeff:     -0.254D-04 0.111D-04-0.595D-03 0.152D-02 0.499D-02 0.845D-02
 Coeff:     -0.598D-01-0.753D-01 0.553D-01 0.107D+01
 Gap=     0.150 Goal=   None    Shift=    0.000
 Gap=     0.109 Goal=   None    Shift=    0.000
 RMSDP=1.31D-07 MaxDP=3.17D-06 DE=-2.15D-10 OVMax= 1.21D-05

 Cycle  17  Pass 1  IDiag  1:
 E= -230.859418043082     Delta-E=       -0.000000000019 Rises=F Damp=F
 DIIS: error= 5.39D-08 at cycle  17 NSaved=  17.
 NSaved=17 IEnMin=17 EnMin= -230.859418043082     IErMin=17 ErrMin= 5.39D-08
 ErrMax= 5.39D-08  0.00D+00 EMaxC= 1.00D-01 BMatC= 2.20D-12 BMatP= 1.86D-11
 IDIUse=1 WtCom= 1.00D+00 WtEn= 0.00D+00
 Coeff-Com: -0.178D-05 0.251D-05 0.160D-05-0.147D-05 0.749D-05-0.480D-05
 Coeff-Com: -0.114D-04-0.524D-04-0.105D-03 0.487D-03 0.132D-02 0.267D-02
 Coeff-Com: -0.659D-02-0.254D-01-0.359D-01 0.114D+00 0.950D+00
 Coeff:     -0.178D-05 0.251D-05 0.160D-05-0.147D-05 0.749D-05-0.480D-05
 Coeff:     -0.114D-04-0.524D-04-0.105D-03 0.487D-03 0.132D-02 0.267D-02
 Coeff:     -0.659D-02-0.254D-01-0.359D-01 0.114D+00 0.950D+00
 Gap=     0.150 Goal=   None    Shift=    0.000
 Gap=     0.109 Goal=   None    Shift=    0.000
 RMSDP=2.62D-08 MaxDP=4.97D-07 DE=-1.87D-11 OVMax= 3.09D-06

 Cycle  18  Pass 1  IDiag  1:
 E= -230.859418043088     Delta-E=       -0.000000000006 Rises=F Damp=F
 DIIS: error= 3.44D-08 at cycle  18 NSaved=  18.
 NSaved=18 IEnMin=18 EnMin= -230.859418043088     IErMin=18 ErrMin= 3.44D-08
 ErrMax= 3.44D-08  0.00D+00 EMaxC= 1.00D-01 BMatC= 1.10D-12 BMatP= 2.20D-12
 IDIUse=1 WtCom= 1.00D+00 WtEn= 0.00D+00
 Coeff-Com: -0.113D-06 0.574D-06 0.187D-06-0.317D-06-0.162D-05-0.353D-05
 Coeff-Com: -0.637D-05-0.458D-04 0.729D-04 0.608D-04-0.289D-03-0.369D-03
 Coeff-Com:  0.872D-02 0.237D-02-0.331D-01-0.185D+00 0.596D+00 0.611D+00
 Coeff:     -0.113D-06 0.574D-06 0.187D-06-0.317D-06-0.162D-05-0.353D-05
 Coeff:     -0.637D-05-0.458D-04 0.729D-04 0.608D-04-0.289D-03-0.369D-03
 Coeff:      0.872D-02 0.237D-02-0.331D-01-0.185D+00 0.596D+00 0.611D+00
 Gap=     0.150 Goal=   None    Shift=    0.000
 Gap=     0.109 Goal=   None    Shift=    0.000
 RMSDP=1.41D-08 MaxDP=3.91D-07 DE=-5.80D-12 OVMax= 1.20D-06

 Cycle  19  Pass 1  IDiag  1:
 E= -230.859418043088     Delta-E=        0.000000000000 Rises=F Damp=F
 DIIS: error= 6.47D-09 at cycle  19 NSaved=  19.
 NSaved=19 IEnMin=18 EnMin= -230.859418043088     IErMin=19 ErrMin= 6.47D-09
 ErrMax= 6.47D-09  0.00D+00 EMaxC= 1.00D-01 BMatC= 3.48D-14 BMatP= 1.10D-12
 IDIUse=1 WtCom= 1.00D+00 WtEn= 0.00D+00
 Coeff-Com:  0.279D-06-0.355D-06-0.186D-06 0.195D-06-0.110D-05 0.986D-06
 Coeff-Com:  0.301D-06-0.370D-05 0.827D-05-0.400D-05-0.100D-03-0.205D-03
 Coeff-Com:  0.135D-02 0.249D-02 0.156D-03-0.301D-01-0.565D-01 0.794D-01
 Coeff-Com:  0.100D+01
 Coeff:      0.279D-06-0.355D-06-0.186D-06 0.195D-06-0.110D-05 0.986D-06
 Coeff:      0.301D-06-0.370D-05 0.827D-05-0.400D-05-0.100D-03-0.205D-03
 Coeff:      0.135D-02 0.249D-02 0.156D-03-0.301D-01-0.565D-01 0.794D-01
 Coeff:      0.100D+01
 Gap=     0.150 Goal=   None    Shift=    0.000
 Gap=     0.109 Goal=   None    Shift=    0.000
 RMSDP=5.30D-09 MaxDP=1.53D-07 DE= 1.14D-13 OVMax= 2.74D-07

 SCF Done:  E(UB3LYP) =  -230.859418043     A.U. after   19 cycles
            NFock= 19  Conv=0.53D-08     -V/T= 2.0047
 <Sx>= 0.0000 <Sy>= 0.0000 <Sz>= 1.0000 <S**2>= 2.0057 S= 1.0019
 <L.S>= 0.000000000000E+00
 KE= 2.297828328367D+02 PE=-9.090083361505D+02 EE= 2.613666540970D+02
 Annihilation of the first spin contaminant:
 S**2 before annihilation     2.0057,   after     2.0000
 Leave Link  502 at Sat Jun 27 03:09:40 2020, MaxMem=   524288000 cpu:             299.5 elap:              46.5
 (Enter /home/ubuntu/g16/l601.exe)
 Copying SCF densities to generalized density rwf, IOpCl= 1 IROHF=0.

 **********************************************************************

            Population analysis using the SCF density.

 **********************************************************************

 Orbital symmetries:
 Alpha Orbitals:
       Occupied  (A) (A) (A) (A) (A) (A) (A) (A) (A) (A) (A) (A)
                 (A) (A) (A) (A) (A) (A) (A) (A) (A)
       Virtual   (A) (A) (A) (A) (A) (A) (A) (A) (A) (A) (A) (A)
                 (A) (A) (A) (A) (A) (A) (A) (A) (A) (A) (A) (A)
                 (A) (A) (A) (A) (A) (A) (A) (A) (A) (A) (A) (A)
                 (A) (A) (A) (A) (A) (A) (A) (A) (A) (A) (A) (A)
                 (A) (A) (A) (A) (A) (A) (A) (A) (A) (A) (A) (A)
                 (A) (A) (A) (A) (A) (A) (A) (A) (A) (A) (A) (A)
                 (A) (A) (A) (A) (A) (A) (A) (A) (A) (A) (A) (A)
                 (A) (A) (A) (A) (A) (A) (A) (A) (A) (A) (A) (A)
                 (A) (A) (A) (A) (A) (A) (A) (A) (A) (A) (A) (A)
                 (A) (A) (A) (A) (A) (A) (A) (A) (A) (A) (A) (A)
                 (A) (A) (A) (A) (A) (A) (A) (A) (A) (A) (A) (A)
                 (A) (A) (A) (A) (A) (A) (A) (A) (A) (A) (A) (A)
                 (A) (A) (A) (A) (A) (A) (A) (A) (A)
 Beta  Orbitals:
       Occupied  (A) (A) (A) (A) (A) (A) (A) (A) (A) (A) (A) (A)
                 (A) (A) (A) (A) (A) (A) (A)
       Virtual   (A) (A) (A) (A) (A) (A) (A) (A) (A) (A) (A) (A)
                 (A) (A) (A) (A) (A) (A) (A) (A) (A) (A) (A) (A)
                 (A) (A) (A) (A) (A) (A) (A) (A) (A) (A) (A) (A)
                 (A) (A) (A) (A) (A) (A) (A) (A) (A) (A) (A) (A)
                 (A) (A) (A) (A) (A) (A) (A) (A) (A) (A) (A) (A)
                 (A) (A) (A) (A) (A) (A) (A) (A) (A) (A) (A) (A)
                 (A) (A) (A) (A) (A) (A) (A) (A) (A) (A) (A) (A)
                 (A) (A) (A) (A) (A) (A) (A) (A) (A) (A) (A) (A)
                 (A) (A) (A) (A) (A) (A) (A) (A) (A) (A) (A) (A)
                 (A) (A) (A) (A) (A) (A) (A) (A) (A) (A) (A) (A)
                 (A) (A) (A) (A) (A) (A) (A) (A) (A) (A) (A) (A)
                 (A) (A) (A) (A) (A) (A) (A) (A) (A) (A) (A) (A)
                 (A) (A) (A) (A) (A) (A) (A) (A) (A) (A) (A)
 The electronic state is 3-A.
     Natural Orbital Coefficients:
                           1         2         3         4         5
     Eigenvalues --     2.00000   2.00000   2.00000   2.00000   2.00000
   1 1   C  1S         -0.01186  -0.00386   0.01090  -0.01127   0.69100
   2        2S         -0.00200  -0.00011  -0.00063  -0.00042   0.01699
   3        3S          0.05204  -0.01758   0.01705   0.01543  -0.09844
   4        4S          0.00363  -0.02995   0.01366  -0.00775  -0.03664
   5        5PX        -0.00022  -0.00007   0.00060   0.00035   0.00863
   6        5PY        -0.00061  -0.00022  -0.00008   0.00040   0.00421
   7        5PZ         0.00000   0.00000   0.00000   0.00000  -0.00000
   8        6PX         0.01255   0.01701   0.00234  -0.03493  -0.03243
   9        6PY         0.02478   0.00901   0.01389  -0.04623  -0.03178
  10        6PZ        -0.00000  -0.00000  -0.00000   0.00000  -0.00000
  11        7PX         0.00610   0.01503   0.00257  -0.05531  -0.00821
  12        7PY         0.00011   0.00711   0.00546  -0.04309  -0.00509
  13        7PZ         0.00000   0.00000   0.00000  -0.00000  -0.00000
  14        8D 0       -0.00028  -0.00008   0.00025  -0.00048  -0.00030
  15        8D+1        0.00000   0.00000  -0.00000   0.00000   0.00000
  16        8D-1       -0.00000  -0.00000  -0.00000   0.00000  -0.00000
  17        8D+2        0.00009   0.00002   0.00019  -0.00008  -0.00130
  18        8D-2        0.00011  -0.00024  -0.00053   0.00104   0.00009
  19        9D 0        0.00042   0.00010  -0.00068   0.00041   0.00468
  20        9D+1       -0.00000  -0.00000  -0.00000   0.00000  -0.00000
  21        9D-1       -0.00000  -0.00000  -0.00000   0.00000  -0.00000
  22        9D+2       -0.00906  -0.00607  -0.00501   0.01747  -0.00222
  23        9D-2        0.00293   0.00210  -0.00049   0.00369  -0.01204
  24 2   C  1S         -0.01184   0.00404   0.00981   0.01226   0.69183
  25        2S         -0.00199   0.00012  -0.00066   0.00035   0.01703
  26        3S          0.05219   0.01731   0.01849  -0.01366  -0.09897
  27        4S          0.00366   0.02994   0.01298   0.00902  -0.03630
  28        5PX         0.00022  -0.00007  -0.00063   0.00029  -0.00863
  29        5PY        -0.00061   0.00022  -0.00004  -0.00041   0.00420
  30        5PZ         0.00000  -0.00000   0.00000   0.00000  -0.00000
  31        6PX        -0.01168   0.01706   0.00102  -0.03495   0.03187
  32        6PY         0.02438  -0.00912   0.00917   0.04737  -0.03220
  33        6PZ         0.00000  -0.00000   0.00000  -0.00000  -0.00000
  34        7PX        -0.00634   0.01505   0.00310  -0.05522   0.00805
  35        7PY         0.00024  -0.00711   0.00107   0.04341  -0.00495
  36        7PZ        -0.00000  -0.00000  -0.00000  -0.00000   0.00000
  37        8D 0       -0.00028   0.00008   0.00020   0.00050  -0.00029
  38        8D+1        0.00000   0.00000  -0.00000  -0.00000   0.00000
  39        8D-1        0.00000   0.00000   0.00000   0.00000  -0.00000
  40        8D+2        0.00009  -0.00002   0.00019   0.00011  -0.00130
  41        8D-2       -0.00011  -0.00024   0.00042   0.00109  -0.00009
  42        9D 0        0.00042  -0.00010  -0.00064  -0.00048   0.00468
  43        9D+1        0.00000   0.00000   0.00000  -0.00000  -0.00000
  44        9D-1        0.00000   0.00000   0.00000  -0.00000   0.00000
  45        9D+2       -0.00889   0.00612  -0.00323  -0.01788  -0.00213
  46        9D-2       -0.00279   0.00211   0.00007   0.00373   0.01181
  47 3   C  1S          0.09492  -0.05661   0.66381   0.73737  -0.00824
  48        2S          0.00078  -0.00094   0.02432   0.02947  -0.00390
  49        3S          0.00931   0.02323  -0.06559  -0.12074  -0.01044
  50        4S          0.02231  -0.03588  -0.04151  -0.11572   0.04193
  51        5PX        -0.00081  -0.00009   0.00060   0.00008   0.00846
  52        5PY        -0.00185   0.00160  -0.00089  -0.00050  -0.00343
  53        5PZ         0.00000  -0.00000   0.00000   0.00000  -0.00001
  54        6PX        -0.00524   0.00767  -0.02106  -0.05822  -0.01289
  55        6PY         0.04961  -0.00540  -0.00930  -0.00404  -0.07328
  56        6PZ        -0.00001  -0.00000  -0.00000  -0.00000   0.00001
  57        7PX         0.01135  -0.01176  -0.00642  -0.02002   0.00703
  58        7PY         0.00810  -0.01025  -0.00667   0.03541  -0.00607
  59        7PZ         0.00000   0.00000   0.00000   0.00000  -0.00000
  60        8D 0        0.00034  -0.00056  -0.00058  -0.00054  -0.00026
  61        8D+1       -0.00000   0.00000  -0.00000  -0.00000  -0.00000
  62        8D-1        0.00000   0.00000   0.00000  -0.00000  -0.00000
  63        8D+2        0.00040  -0.00074   0.00063   0.00055   0.00253
  64        8D-2       -0.00092   0.00070  -0.00007  -0.00007   0.00339
  65        9D 0       -0.00073   0.00153   0.00504   0.00722  -0.00343
  66        9D+1       -0.00000   0.00000  -0.00000  -0.00000   0.00000
  67        9D-1       -0.00000  -0.00000   0.00000   0.00000   0.00000
  68        9D+2       -0.01169   0.00428  -0.00645  -0.01570  -0.00923
  69        9D-2        0.01640   0.00004  -0.00226  -0.00224  -0.02548
  70 4   C  1S          0.70012  -0.70652  -0.09160  -0.05979  -0.01086
  71        2S          0.02011  -0.02503  -0.00360  -0.00290   0.05043
  72        3S         -0.08524   0.11136   0.03622  -0.00208   0.13514
  73        4S         -0.03578   0.10444   0.02460   0.06315  -0.00609
  74        5PX        -0.00310  -0.00240   0.00101   0.00065   0.07721
  75        5PY         0.00007   0.00081   0.00170   0.00060  -0.01127
  76        5PZ         0.00000   0.00000   0.00000   0.00000  -0.00002
  77        6PX         0.02598   0.05897  -0.00283  -0.03257   0.00079
  78        6PY         0.02428   0.00116  -0.01923  -0.04941  -0.04430
  79        6PZ         0.00001  -0.00001  -0.00000   0.00000  -0.00002
  80        7PX         0.00215   0.01033  -0.00333   0.03243   0.00107
  81        7PY         0.00712  -0.02692  -0.00716   0.00389   0.00680
  82        7PZ        -0.00000  -0.00001  -0.00000  -0.00001   0.00000
  83        8D 0        0.00001   0.00088   0.00019   0.00052  -0.00192
  84        8D+1        0.00000   0.00000  -0.00000   0.00000  -0.00000
  85        8D-1        0.00000  -0.00000  -0.00000  -0.00000  -0.00000
  86        8D+2       -0.00120  -0.00082   0.00040   0.00037   0.00400
  87        8D-2       -0.00033   0.00006  -0.00032  -0.00085  -0.00032
  88        9D 0        0.00446  -0.00839  -0.00177  -0.00228   0.00114
  89        9D+1        0.00000  -0.00001   0.00000   0.00001   0.00000
  90        9D-1       -0.00001  -0.00000  -0.00000   0.00000   0.00001
  91        9D+2        0.00002   0.01929  -0.00697  -0.02387  -0.02753
  92        9D-2       -0.00963   0.00096   0.00307  -0.00336   0.00888
  93 5   C  1S          0.70374   0.70284  -0.09743   0.05057  -0.01100
  94        2S          0.02024   0.02496  -0.00388   0.00252   0.05042
  95        3S         -0.08564  -0.11089   0.03594   0.00559   0.13530
  96        4S         -0.03648  -0.10425   0.03080  -0.06051  -0.00671
  97        5PX         0.00309  -0.00247  -0.00107   0.00057  -0.07721
  98        5PY         0.00007  -0.00082   0.00175  -0.00042  -0.01121
  99        5PZ         0.00000  -0.00000   0.00000   0.00000  -0.00000
 100        6PX        -0.02648   0.05910   0.00600  -0.03211  -0.00105
 101        6PY         0.02475  -0.00133  -0.02414   0.04732  -0.04448
 102        6PZ        -0.00001  -0.00001   0.00000  -0.00000   0.00001
 103        7PX        -0.00173   0.01035  -0.00006   0.03256  -0.00084
 104        7PY         0.00703   0.02688  -0.00667  -0.00458   0.00676
 105        7PZ         0.00000   0.00000   0.00000  -0.00000  -0.00000
 106        8D 0        0.00000  -0.00088   0.00024  -0.00050  -0.00192
 107        8D+1        0.00000  -0.00000  -0.00000  -0.00000  -0.00000
 108        8D-1        0.00000   0.00000   0.00000   0.00000  -0.00000
 109        8D+2       -0.00119   0.00082   0.00044  -0.00034   0.00401
 110        8D-2        0.00033   0.00006   0.00040  -0.00081   0.00032
 111        9D 0        0.00449   0.00836  -0.00199   0.00210   0.00114
 112        9D+1        0.00000   0.00000   0.00000   0.00000  -0.00000
 113        9D-1        0.00001   0.00000   0.00000   0.00000  -0.00000
 114        9D+2        0.00026  -0.01928  -0.00934   0.02306  -0.02754
 115        9D-2        0.00971   0.00091  -0.00270  -0.00365  -0.00884
 116 6   C  1S          0.09532   0.05650   0.73324  -0.66832  -0.00828
 117        2S          0.00080   0.00095   0.02712  -0.02693  -0.00390
 118        3S          0.00920  -0.02335  -0.07723   0.11373  -0.01031
 119        4S          0.02243   0.03576  -0.05279   0.11119   0.04241
 120        5PX         0.00080  -0.00010  -0.00060   0.00002  -0.00845
 121        5PY        -0.00185  -0.00159  -0.00094   0.00041  -0.00343
 122        5PZ         0.00000  -0.00000   0.00000   0.00000   0.00000
 123        6PX         0.00529   0.00765   0.02681  -0.05587   0.01308
 124        6PY         0.05034   0.00510  -0.00978   0.00321  -0.07346
 125        6PZ         0.00000   0.00000   0.00001  -0.00001   0.00001
 126        7PX        -0.01141  -0.01168   0.00838  -0.01934  -0.00716
 127        7PY         0.00784   0.01022  -0.00299  -0.03582  -0.00621
 128        7PZ        -0.00000  -0.00000   0.00000   0.00000  -0.00000
 129        8D 0        0.00035   0.00056  -0.00063   0.00048  -0.00026
 130        8D+1       -0.00000  -0.00000   0.00000  -0.00000   0.00000
 131        8D-1        0.00000   0.00000   0.00000  -0.00000  -0.00000
 132        8D+2        0.00040   0.00073   0.00068  -0.00049   0.00252
 133        8D-2        0.00091   0.00070   0.00007  -0.00006  -0.00339
 134        9D 0       -0.00073  -0.00152   0.00573  -0.00669  -0.00342
 135        9D+1       -0.00001  -0.00000  -0.00001   0.00001  -0.00000
 136        9D-1       -0.00000  -0.00000   0.00000  -0.00000  -0.00000
 137        9D+2       -0.01173  -0.00421  -0.00802   0.01497  -0.00932
 138        9D-2       -0.01665   0.00013   0.00254  -0.00206   0.02548
 139 7   H  1S         -0.00091   0.00113  -0.00148  -0.00075  -0.00398
 140        2S          0.00873  -0.00614   0.01339   0.01166   0.00675
 141        3S          0.00590  -0.00382  -0.00060  -0.00809   0.00447
 142        4PX        -0.00057   0.00026  -0.00146  -0.00142  -0.00092
 143        4PY        -0.00032   0.00026   0.00001  -0.00002   0.00034
 144        4PZ        -0.00000  -0.00000   0.00000   0.00000   0.00000
 145        5PX         0.00104  -0.00224   0.00337   0.00186   0.00264
 146        5PY         0.00269  -0.00059   0.00014  -0.00070  -0.00374
 147        5PZ        -0.00000   0.00000  -0.00000  -0.00000   0.00000
 148 8   H  1S         -0.00298   0.00334   0.00096  -0.00037  -0.01244
 149        2S          0.01081   0.00757   0.00270  -0.00063  -0.02133
 150        3S         -0.00195   0.01177   0.00291   0.00306  -0.00457
 151        4PX        -0.00097   0.00031   0.00015   0.00029   0.00156
 152        4PY         0.00094  -0.00104  -0.00013  -0.00013  -0.00032
 153        4PZ         0.00000  -0.00000   0.00000  -0.00000  -0.00000
 154        5PX         0.00247   0.00277  -0.00170  -0.00183  -0.00907
 155        5PY        -0.00421   0.00051  -0.00194  -0.00339  -0.00070
 156        5PZ         0.00000   0.00000   0.00000   0.00000  -0.00000
 157 9   H  1S         -0.00300  -0.00333   0.00092   0.00047  -0.01238
 158        2S          0.01092  -0.00760   0.00264   0.00087  -0.02110
 159        3S         -0.00199  -0.01176   0.00321  -0.00276  -0.00458
 160        4PX         0.00097   0.00030  -0.00018   0.00027  -0.00156
 161        4PY         0.00095   0.00103  -0.00015   0.00012  -0.00032
 162        4PZ         0.00000   0.00000  -0.00000  -0.00000   0.00000
 163        5PX        -0.00251   0.00277   0.00189  -0.00165   0.00905
 164        5PY        -0.00421  -0.00050  -0.00228   0.00319  -0.00076
 165        5PZ        -0.00000  -0.00000  -0.00000  -0.00000   0.00000
 166 10  H  1S         -0.00091  -0.00112  -0.00154   0.00060  -0.00396
 167        2S          0.00875   0.00610   0.01449  -0.01026   0.00665
 168        3S          0.00591   0.00379  -0.00140   0.00799   0.00450
 169        4PX         0.00057   0.00025   0.00159  -0.00127   0.00093
 170        4PY        -0.00033  -0.00026   0.00000   0.00002   0.00033
 171        4PZ         0.00000   0.00000   0.00000  -0.00000   0.00000
 172        5PX        -0.00104  -0.00224  -0.00353   0.00151  -0.00259
 173        5PY         0.00275   0.00058   0.00007   0.00071  -0.00372
 174        5PZ         0.00000   0.00000   0.00000  -0.00000   0.00000
                           6         7         8         9        10
     Eigenvalues --     2.00000   2.00000   2.00000   2.00000   1.99999
   1 1   C  1S          0.70904  -0.15569   0.01806  -0.00530  -0.00001
   2        2S          0.02095  -0.00915   0.00207  -0.00514   0.00000
   3        3S         -0.13268  -0.10136  -0.03611  -0.03325  -0.00003
   4        4S         -0.08150  -0.01060   0.02715  -0.23754   0.00027
   5        5PX        -0.00754   0.01301  -0.00701  -0.00358  -0.00001
   6        5PY        -0.00462   0.01238  -0.00537  -0.00042   0.00000
   7        5PZ        -0.00000   0.00000   0.00004  -0.00004   0.08591
   8        6PX         0.04376  -0.01741  -0.00992   0.03477   0.00008
   9        6PY        -0.00427  -0.03505  -0.01525   0.04697  -0.00007
  10        6PZ        -0.00000   0.00001   0.00003   0.00003   0.02450
  11        7PX         0.05067  -0.00964   0.04149  -0.16768   0.00007
  12        7PY         0.02104  -0.00528  -0.01069  -0.14700   0.00013
  13        7PZ         0.00000  -0.00000  -0.00001  -0.00002  -0.00691
  14        8D 0       -0.00134  -0.00190   0.00141  -0.00062  -0.00000
  15        8D+1        0.00000   0.00000  -0.00000   0.00000  -0.00014
  16        8D-1        0.00000   0.00000   0.00001  -0.00001   0.01148
  17        8D+2        0.00243  -0.00238  -0.00092  -0.00389   0.00000
  18        8D-2        0.00054  -0.00130   0.00034  -0.00017  -0.00000
  19        9D 0        0.00790  -0.00556   0.00034   0.00047   0.00001
  20        9D+1        0.00000  -0.00001   0.00002   0.00000   0.00013
  21        9D-1        0.00000  -0.00000   0.00001   0.00001   0.00448
  22        9D+2       -0.01152   0.01653   0.00450  -0.01652   0.00001
  23        9D-2       -0.00419  -0.00099  -0.00466  -0.01402   0.00004
  24 2   C  1S         -0.70827  -0.15549   0.01812   0.00523   0.00001
  25        2S         -0.02093  -0.00908   0.00205   0.00518  -0.00000
  26        3S          0.13266  -0.10149  -0.03673   0.03409   0.00017
  27        4S          0.08147  -0.01044   0.02754   0.23736  -0.00032
  28        5PX        -0.00755  -0.01304   0.00703  -0.00360   0.00001
  29        5PY         0.00463   0.01241  -0.00540   0.00045  -0.00001
  30        5PZ        -0.00000  -0.00000   0.00004  -0.00005   0.08592
  31        6PX         0.04376   0.01719   0.00795   0.03438   0.00003
  32        6PY         0.00429  -0.03531  -0.01448  -0.04676   0.00013
  33        6PZ        -0.00000  -0.00002   0.00003  -0.00004   0.02447
  34        7PX         0.05064   0.00881  -0.04137  -0.16747   0.00010
  35        7PY        -0.02105  -0.00472  -0.01069   0.14700  -0.00013
  36        7PZ         0.00000   0.00001  -0.00001   0.00000  -0.00689
  37        8D 0        0.00133  -0.00189   0.00141   0.00062  -0.00000
  38        8D+1        0.00000   0.00000  -0.00000   0.00000   0.00015
  39        8D-1       -0.00000  -0.00000   0.00001  -0.00001   0.01149
  40        8D+2       -0.00243  -0.00238  -0.00093   0.00390   0.00001
  41        8D-2        0.00053   0.00129  -0.00032  -0.00018   0.00000
  42        9D 0       -0.00789  -0.00554   0.00030  -0.00046  -0.00000
  43        9D+1        0.00000  -0.00001   0.00000  -0.00000  -0.00014
  44        9D-1       -0.00000  -0.00000   0.00000  -0.00001   0.00446
  45        9D+2        0.01151   0.01659   0.00413   0.01652  -0.00003
  46        9D-2       -0.00419   0.00088   0.00430  -0.01412   0.00003
  47 3   C  1S          0.01002  -0.00180  -0.01377   0.04104   0.00013
  48        2S          0.00248  -0.00138   0.02270  -0.07910  -0.00026
  49        3S          0.00980  -0.16582  -0.03907  -0.16340  -0.00049
  50        4S          0.02290   0.11441   0.14829  -0.42694   0.00065
  51        5PX         0.01247   0.03717   0.01649  -0.01372  -0.00004
  52        5PY        -0.00654  -0.01773   0.06863  -0.09342  -0.00022
  53        5PZ         0.00000  -0.00001   0.00011  -0.00014   0.20555
  54        6PX        -0.00432  -0.06447  -0.00813  -0.02975  -0.00029
  55        6PY         0.01132  -0.14437  -0.09196  -0.04619  -0.00011
  56        6PZ         0.00000   0.00003   0.00005  -0.00002   0.10055
  57        7PX         0.00225  -0.00143   0.02557  -0.12918   0.00010
  58        7PY        -0.03146   0.01812   0.07606   0.16363  -0.00005
  59        7PZ        -0.00000  -0.00001   0.00001  -0.00002   0.00542
  60        8D 0       -0.00080  -0.00343  -0.00180   0.00562   0.00001
  61        8D+1        0.00000  -0.00000   0.00001  -0.00001   0.01282
  62        8D-1       -0.00000  -0.00000   0.00001  -0.00001   0.01093
  63        8D+2       -0.00114   0.00746  -0.01371   0.01132   0.00002
  64        8D-2       -0.00142   0.01063  -0.00049  -0.00608  -0.00001
  65        9D 0        0.00132  -0.00577   0.00095  -0.00065   0.00000
  66        9D+1       -0.00000   0.00002  -0.00002   0.00003   0.00194
  67        9D-1       -0.00000   0.00001   0.00001   0.00001   0.00533
  68        9D+2        0.00394   0.02695   0.03257  -0.00151  -0.00003
  69        9D-2        0.00411  -0.05555  -0.02065  -0.01367  -0.00000
  70 4   C  1S         -0.00478  -0.11286  -0.06890   0.10386   0.00011
  71        2S         -0.00023   0.24223   0.14695  -0.23187  -0.00024
  72        3S          0.00518   0.44873   0.02246  -0.46530  -0.00028
  73        4S         -0.02314  -0.07420  -0.22686   0.98015  -0.00041
  74        5PX         0.00121   0.32070  -0.21514   0.15040   0.00037
  75        5PY        -0.00338  -0.02812   0.17465  -0.08824  -0.00000
  76        5PZ         0.00000  -0.00006   0.00025  -0.00025   0.33468
  77        6PX         0.01264   0.00413  -0.07875  -0.42626  -0.00020
  78        6PY         0.00108  -0.13269  -0.11936   0.01574  -0.00021
  79        6PZ        -0.00000  -0.00007   0.00005  -0.00004   0.17713
  80        7PX        -0.03161   0.03037   0.05583   0.34370  -0.00002
  81        7PY        -0.00954   0.02765   0.00286   0.05349   0.00017
  82        7PZ         0.00000   0.00002   0.00001  -0.00002   0.01709
  83        8D 0        0.00020  -0.00778  -0.00616   0.00269   0.00000
  84        8D+1        0.00000  -0.00000   0.00000  -0.00000   0.01198
  85        8D-1       -0.00000  -0.00000   0.00000  -0.00000  -0.00967
  86        8D+2       -0.00073   0.01735  -0.00527   0.01193   0.00001
  87        8D-2        0.00008  -0.00189   0.00228   0.00718  -0.00001
  88        9D 0       -0.00022   0.00267  -0.00264  -0.00668  -0.00001
  89        9D+1       -0.00000   0.00002   0.00002   0.00001   0.00374
  90        9D-1        0.00000   0.00004  -0.00003   0.00010  -0.00200
  91        9D+2        0.00389  -0.06654   0.06530  -0.17599  -0.00020
  92        9D-2       -0.00469   0.04825   0.08186  -0.04329  -0.00001
  93 5   C  1S          0.00471  -0.11292  -0.06908  -0.10374   0.00000
  94        2S          0.00036   0.24217   0.14739   0.23162   0.00000
  95        3S         -0.00491   0.44873   0.02189   0.46400   0.00021
  96        4S          0.02316  -0.07552  -0.22832  -0.98040   0.00045
  97        5PX         0.00104  -0.32072   0.21542   0.15019  -0.00013
  98        5PY         0.00339  -0.02785   0.17468   0.08796   0.00001
  99        5PZ         0.00000   0.00001   0.00020  -0.00016   0.33461
 100        6PX         0.01263  -0.00473   0.08059  -0.42636  -0.00034
 101        6PY        -0.00117  -0.13271  -0.12057  -0.01493   0.00020
 102        6PZ         0.00000   0.00003   0.00006  -0.00007   0.17712
 103        7PX        -0.03159  -0.02949  -0.05546   0.34346  -0.00005
 104        7PY         0.00956   0.02735   0.00297  -0.05363  -0.00019
 105        7PZ        -0.00000  -0.00001  -0.00003  -0.00008   0.01707
 106        8D 0       -0.00020  -0.00777  -0.00616  -0.00268   0.00001
 107        8D+1        0.00000  -0.00000  -0.00000   0.00001  -0.01200
 108        8D-1        0.00000  -0.00000   0.00000   0.00001  -0.00966
 109        8D+2        0.00074   0.01737  -0.00532  -0.01193  -0.00000
 110        8D-2        0.00008   0.00190  -0.00228   0.00719   0.00001
 111        9D 0        0.00022   0.00267  -0.00257   0.00668   0.00002
 112        9D+1       -0.00000  -0.00001  -0.00002  -0.00002  -0.00375
 113        9D-1        0.00000  -0.00002  -0.00003  -0.00008  -0.00200
 114        9D+2       -0.00394  -0.06643   0.06476   0.17622   0.00010
 115        9D-2       -0.00472  -0.04828  -0.08210  -0.04316  -0.00001
 116 6   C  1S         -0.00995  -0.00184  -0.01383  -0.04106  -0.00001
 117        2S         -0.00249  -0.00140   0.02287   0.07918   0.00001
 118        3S         -0.00991  -0.16576  -0.03865   0.16405   0.00011
 119        4S         -0.02288   0.11535   0.14838   0.42735  -0.00067
 120        5PX         0.01247  -0.03700  -0.01646  -0.01347   0.00003
 121        5PY         0.00651  -0.01771   0.06878   0.09327  -0.00002
 122        5PZ         0.00000   0.00001   0.00009  -0.00011   0.20542
 123        6PX        -0.00425   0.06432   0.00790  -0.02993  -0.00021
 124        6PY        -0.01137  -0.14451  -0.09367   0.04701   0.00012
 125        6PZ         0.00000   0.00003   0.00005  -0.00013   0.10044
 126        7PX         0.00228   0.00118  -0.02562  -0.12932   0.00013
 127        7PY         0.03143   0.01740   0.07608  -0.16337   0.00001
 128        7PZ        -0.00000  -0.00000   0.00001   0.00004   0.00542
 129        8D 0        0.00080  -0.00344  -0.00181  -0.00562  -0.00001
 130        8D+1       -0.00000   0.00000  -0.00001   0.00001  -0.01281
 131        8D-1        0.00000   0.00000   0.00001  -0.00001   0.01094
 132        8D+2        0.00114   0.00745  -0.01373  -0.01131   0.00001
 133        8D-2       -0.00144  -0.01065   0.00052  -0.00606  -0.00000
 134        9D 0       -0.00132  -0.00578   0.00095   0.00067  -0.00001
 135        9D+1       -0.00000  -0.00000   0.00004   0.00005  -0.00192
 136        9D-1        0.00000  -0.00000   0.00004  -0.00000   0.00532
 137        9D+2       -0.00392   0.02702   0.03269   0.00162   0.00002
 138        9D-2        0.00415   0.05542   0.02101  -0.01412  -0.00004
 139 7   H  1S         -0.00871  -0.01131  -0.02547  -0.02489  -0.00007
 140        2S         -0.02180  -0.04618  -0.11984   0.05142  -0.00012
 141        3S          0.00293   0.00481   0.00591  -0.02581   0.00005
 142        4PX        -0.00021  -0.00105   0.00160  -0.00426  -0.00001
 143        4PY        -0.00041   0.00003   0.00183  -0.00168  -0.00001
 144        4PZ         0.00000   0.00000   0.00000  -0.00000   0.00724
 145        5PX        -0.00568  -0.00508  -0.02895   0.01911  -0.00003
 146        5PY         0.00190  -0.00927  -0.00896   0.00532   0.00001
 147        5PZ         0.00000   0.00002  -0.00001   0.00001   0.00361
 148 8   H  1S         -0.00238  -0.02009   0.29228  -0.26241  -0.00019
 149        2S          0.00155  -0.04082   0.36322  -0.49102  -0.00017
 150        3S         -0.00357  -0.01747   0.01818   0.03060  -0.00007
 151        4PX        -0.00009   0.00842   0.00589  -0.00607   0.00000
 152        4PY         0.00004  -0.00298  -0.01513   0.01474   0.00001
 153        4PZ         0.00000  -0.00000  -0.00000  -0.00000   0.01165
 154        5PX         0.00124  -0.02922   0.03556  -0.07498  -0.00004
 155        5PY        -0.00042  -0.00651  -0.05481   0.07174  -0.00001
 156        5PZ        -0.00000  -0.00001  -0.00003   0.00003   0.00993
 157 9   H  1S          0.00239  -0.01987   0.29268   0.26204   0.00002
 158        2S         -0.00156  -0.04026   0.36361   0.49056  -0.00001
 159        3S          0.00356  -0.01747   0.01812  -0.03058   0.00008
 160        4PX        -0.00010  -0.00844  -0.00589  -0.00606  -0.00000
 161        4PY        -0.00005  -0.00299  -0.01517  -0.01472  -0.00000
 162        4PZ         0.00000  -0.00000  -0.00000  -0.00001   0.01166
 163        5PX         0.00127   0.02917  -0.03553  -0.07494   0.00001
 164        5PY         0.00041  -0.00664  -0.05487  -0.07154   0.00002
 165        5PZ        -0.00000   0.00001  -0.00001  -0.00002   0.00993
 166 10  H  1S          0.00869  -0.01111  -0.02548   0.02505   0.00007
 167        2S          0.02174  -0.04610  -0.11980  -0.05129   0.00024
 168        3S         -0.00292   0.00489   0.00593   0.02580  -0.00006
 169        4PX        -0.00021   0.00105  -0.00160  -0.00426  -0.00000
 170        4PY         0.00041   0.00003   0.00184   0.00169  -0.00000
 171        4PZ        -0.00000   0.00000   0.00000  -0.00000   0.00724
 172        5PX        -0.00567   0.00508   0.02893   0.01908  -0.00007
 173        5PY        -0.00189  -0.00930  -0.00905  -0.00521   0.00001
 174        5PZ        -0.00000   0.00000  -0.00002  -0.00001   0.00360
                          11        12        13        14        15
     Eigenvalues --     1.99999   1.99999   1.99996   1.99993   1.99985
   1 1   C  1S          0.00339  -0.01258   0.02854   0.02467  -0.06736
   2        2S         -0.00731  -0.00520  -0.10307  -0.05414   0.13690
   3        3S          0.11638   0.01085  -0.20158   0.00702   0.19726
   4        4S         -0.00295   0.43058  -0.01057   0.04057  -0.00312
   5        5PX        -0.01485   0.00989  -0.06044   0.35966  -0.01233
   6        5PY        -0.01530  -0.00259  -0.10833   0.17294   0.15421
   7        5PZ        -0.00004  -0.00004   0.00002  -0.00000   0.00001
   8        6PX         0.04888  -0.15887  -0.02618  -0.00304   0.05323
   9        6PY         0.03973  -0.16461  -0.10225   0.07440   0.07892
  10        6PZ        -0.00004  -0.00004   0.00001   0.00002   0.00001
  11        7PX         0.02416   0.31199   0.13177  -0.00767   0.00450
  12        7PY        -0.00863   0.31387   0.09390   0.00880  -0.00454
  13        7PZ         0.00002   0.00001  -0.00001  -0.00000  -0.00000
  14        8D 0        0.00443  -0.00465   0.00332   0.00097  -0.00717
  15        8D+1       -0.00000   0.00000   0.00000   0.00000  -0.00000
  16        8D-1       -0.00001  -0.00000   0.00000   0.00000   0.00000
  17        8D+2        0.00302   0.00645   0.01800  -0.01411  -0.00796
  18        8D-2       -0.00499   0.00930  -0.00884   0.00634  -0.00687
  19        9D 0        0.00398  -0.01155  -0.00366  -0.00756  -0.00334
  20        9D+1        0.00000   0.00001   0.00000  -0.00003   0.00001
  21        9D-1       -0.00001  -0.00001   0.00000  -0.00001   0.00001
  22        9D+2       -0.01272   0.04037   0.00030  -0.00024  -0.00022
  23        9D-2        0.00737   0.03394   0.02012  -0.03034   0.00547
  24 2   C  1S          0.00358   0.01255  -0.02868   0.02473  -0.06741
  25        2S         -0.00723   0.00528   0.10338  -0.05434   0.13701
  26        3S          0.11544  -0.01241   0.20257   0.00508   0.19643
  27        4S         -0.00721  -0.42984   0.01099   0.04046  -0.00189
  28        5PX         0.01494   0.00968  -0.06060  -0.35951   0.01224
  29        5PY        -0.01524   0.00279   0.10876   0.17284   0.15426
  30        5PZ        -0.00004  -0.00003   0.00001  -0.00003   0.00000
  31        6PX        -0.05339  -0.15812  -0.02645  -0.00208  -0.05681
  32        6PY         0.04209   0.16428   0.10278   0.07586   0.07963
  33        6PZ         0.00001   0.00002  -0.00001  -0.00004   0.00001
  34        7PX        -0.02026   0.31179   0.13154   0.00866  -0.00336
  35        7PY        -0.01236  -0.31369  -0.09387   0.00817  -0.00502
  36        7PZ        -0.00001   0.00002   0.00001   0.00000  -0.00000
  37        8D 0        0.00448   0.00458  -0.00335   0.00097  -0.00716
  38        8D+1        0.00000  -0.00000   0.00000   0.00000  -0.00000
  39        8D-1       -0.00000  -0.00000  -0.00000  -0.00000   0.00000
  40        8D+2        0.00295  -0.00648  -0.01801  -0.01413  -0.00796
  41        8D-2        0.00509   0.00925  -0.00881  -0.00635   0.00687
  42        9D 0        0.00406   0.01145   0.00364  -0.00762  -0.00340
  43        9D+1        0.00001   0.00001   0.00001  -0.00003   0.00001
  44        9D-1        0.00001   0.00001  -0.00001   0.00001  -0.00000
  45        9D+2       -0.01345  -0.04027  -0.00038  -0.00104  -0.00068
  46        9D-2       -0.00765   0.03399   0.02003   0.02940  -0.00643
  47 3   C  1S          0.11944   0.10040  -0.07764  -0.04602  -0.02377
  48        2S         -0.24968  -0.20447   0.15689   0.10316   0.04849
  49        3S         -0.32733  -0.21498   0.42206   0.09631   0.10257
  50        4S          0.21909   1.05448   0.07812  -0.02622   0.12366
  51        5PX         0.07738   0.20203   0.26327   0.04405   0.28403
  52        5PY        -0.10305  -0.01950   0.04399  -0.24373   0.00297
  53        5PZ        -0.00011  -0.00007   0.00002  -0.00004   0.00003
  54        6PX        -0.14218  -0.21848   0.06382  -0.10870  -0.06515
  55        6PY        -0.07339  -0.01705   0.21564  -0.07668   0.06896
  56        6PZ        -0.00005  -0.00003   0.00006  -0.00000   0.00002
  57        7PX         0.01292   0.14119  -0.00662  -0.01882  -0.00916
  58        7PY         0.05111  -0.22131  -0.11219   0.00152   0.01277
  59        7PZ         0.00002   0.00003  -0.00001  -0.00000   0.00001
  60        8D 0        0.00560   0.00325  -0.00446   0.00193  -0.00284
  61        8D+1       -0.00000   0.00000   0.00001  -0.00000   0.00001
  62        8D-1       -0.00000  -0.00000   0.00000  -0.00000   0.00000
  63        8D+2       -0.00301  -0.01365  -0.00334  -0.00877  -0.00917
  64        8D-2       -0.00666  -0.00144   0.00173  -0.00794  -0.00728
  65        9D 0       -0.00507  -0.01023   0.00058   0.01656   0.00305
  66        9D+1       -0.00004  -0.00005   0.00001  -0.00001  -0.00002
  67        9D-1        0.00000  -0.00001   0.00000   0.00001  -0.00001
  68        9D+2        0.05110   0.07081   0.00105  -0.06228   0.04386
  69        9D-2        0.00239   0.01491   0.05003   0.03934   0.01933
  70 4   C  1S          0.02105  -0.01890  -0.02920   0.02059  -0.00236
  71        2S         -0.04680   0.04465   0.05932  -0.04570   0.00032
  72        3S          0.08673   0.06914   0.18113  -0.07527  -0.04279
  73        4S         -0.20263  -0.90981   0.09708  -0.02063  -0.05065
  74        5PX         0.08634  -0.00738  -0.02482   0.02663  -0.13367
  75        5PY         0.16724   0.07935  -0.22782   0.10750  -0.12252
  76        5PZ        -0.00013  -0.00006   0.00001  -0.00001   0.00009
  77        6PX        -0.03010  -0.00955   0.24594   0.04869  -0.03530
  78        6PY        -0.08709  -0.13073   0.05766  -0.02199  -0.02001
  79        6PZ        -0.00009  -0.00003  -0.00000  -0.00003   0.00004
  80        7PX         0.05777  -0.25871  -0.09244   0.02129  -0.00019
  81        7PY         0.02353   0.06658  -0.04603   0.00037   0.01676
  82        7PZ        -0.00002   0.00001   0.00004  -0.00000   0.00000
  83        8D 0        0.00368   0.00363  -0.00225  -0.00087  -0.00305
  84        8D+1       -0.00001  -0.00001   0.00001  -0.00000   0.00000
  85        8D-1        0.00001   0.00001  -0.00001   0.00000   0.00000
  86        8D+2       -0.00071  -0.00922  -0.01146  -0.00946  -0.01644
  87        8D-2       -0.00676  -0.01752   0.01962   0.00011  -0.00406
  88        9D 0        0.00545   0.00746   0.00531  -0.00414  -0.00557
  89        9D+1        0.00003   0.00003  -0.00004   0.00003  -0.00001
  90        9D-1       -0.00002  -0.00004   0.00005   0.00001  -0.00002
  91        9D+2       -0.03429   0.00300   0.06250  -0.03066   0.01309
  92        9D-2        0.05430   0.02796  -0.13444   0.01267  -0.02534
  93 5   C  1S          0.02127   0.01868   0.02930   0.02056  -0.00241
  94        2S         -0.04731  -0.04414  -0.05950  -0.04565   0.00044
  95        3S          0.08615  -0.06932  -0.18240  -0.07512  -0.04241
  96        4S         -0.19290   0.91218  -0.09722  -0.01978  -0.05063
  97        5PX        -0.08632  -0.00621  -0.02452  -0.02660   0.13371
  98        5PY         0.16646  -0.08138   0.22820   0.10721  -0.12281
  99        5PZ        -0.00015  -0.00011   0.00007  -0.00001   0.00008
 100        6PX         0.03077  -0.01000   0.24557  -0.04638   0.03801
 101        6PY        -0.08654   0.13149  -0.05749  -0.02390  -0.02131
 102        6PZ        -0.00011  -0.00008   0.00004  -0.00003   0.00004
 103        7PX        -0.06038  -0.25783  -0.09244  -0.02225  -0.00073
 104        7PY         0.02266  -0.06658   0.04607   0.00081   0.01734
 105        7PZ        -0.00000   0.00004  -0.00003  -0.00001  -0.00000
 106        8D 0        0.00363  -0.00367   0.00226  -0.00089  -0.00305
 107        8D+1        0.00000   0.00000   0.00000   0.00000  -0.00000
 108        8D-1        0.00001   0.00000   0.00000   0.00000  -0.00000
 109        8D+2       -0.00059   0.00920   0.01145  -0.00949  -0.01644
 110        8D-2        0.00655  -0.01761   0.01959  -0.00012   0.00404
 111        9D 0        0.00535  -0.00747  -0.00531  -0.00415  -0.00556
 112        9D+1        0.00001   0.00002  -0.00001   0.00000  -0.00001
 113        9D-1        0.00002   0.00004  -0.00003  -0.00002  -0.00001
 114        9D+2       -0.03455  -0.00304  -0.06256  -0.03157   0.01248
 115        9D-2       -0.05412   0.02865  -0.13434  -0.01278   0.02485
 116 6   C  1S          0.11827  -0.10185   0.07748  -0.04611  -0.02374
 117        2S         -0.24725   0.20748  -0.15656   0.10335   0.04845
 118        3S         -0.32416   0.21844  -0.42192   0.09770   0.10297
 119        4S          0.20634  -1.05761  -0.07853  -0.02704   0.12386
 120        5PX        -0.07501   0.20289   0.26326  -0.04485  -0.28415
 121        5PY        -0.10269   0.02042  -0.04492  -0.24368   0.00377
 122        5PZ        -0.00009  -0.00006   0.00009   0.00001   0.00001
 123        6PX         0.13926  -0.21959   0.06356   0.10798   0.06526
 124        6PY        -0.07544   0.01844  -0.21515  -0.08027   0.06573
 125        6PZ         0.00002  -0.00004   0.00006   0.00003   0.00001
 126        7PX        -0.01140   0.14151  -0.00646   0.01883   0.00909
 127        7PY         0.05370   0.22042   0.11226   0.00242   0.01373
 128        7PZ        -0.00003  -0.00001   0.00000   0.00000   0.00001
 129        8D 0        0.00555  -0.00331   0.00445   0.00191  -0.00283
 130        8D+1        0.00000   0.00001  -0.00000  -0.00000  -0.00000
 131        8D-1       -0.00000  -0.00000   0.00000   0.00000   0.00000
 132        8D+2       -0.00283   0.01367   0.00333  -0.00874  -0.00915
 133        8D-2        0.00667  -0.00158   0.00174   0.00800   0.00732
 134        9D 0       -0.00494   0.01028  -0.00056   0.01656   0.00306
 135        9D+1       -0.00002  -0.00002   0.00000  -0.00000   0.00002
 136        9D-1        0.00000  -0.00001   0.00002  -0.00002   0.00001
 137        9D+2        0.05000  -0.07167  -0.00099  -0.06273   0.04371
 138        9D-2       -0.00194   0.01550   0.04970  -0.03812  -0.01859
 139 7   H  1S         -0.20872  -0.29118  -0.12784   0.00744  -0.21315
 140        2S         -0.23244  -0.46637  -0.14535  -0.08612  -0.32101
 141        3S         -0.00512   0.02671  -0.01078  -0.00467  -0.02645
 142        4PX        -0.01660  -0.01760  -0.00129   0.00429  -0.00692
 143        4PY        -0.00249  -0.00078   0.00120  -0.00431  -0.00051
 144        4PZ        -0.00000   0.00000   0.00000  -0.00000   0.00000
 145        5PX        -0.04104  -0.09460  -0.03041  -0.04209  -0.07003
 146        5PY         0.00488   0.00533   0.00664   0.02274   0.00107
 147        5PZ        -0.00001   0.00000   0.00001  -0.00001   0.00000
 148 8   H  1S          0.06561   0.10345  -0.13696   0.05291  -0.00769
 149        2S          0.15675   0.25984  -0.23048   0.09528   0.03556
 150        3S          0.00108  -0.03881  -0.01643   0.00719  -0.00623
 151        4PX         0.00254   0.00302  -0.00424   0.00064  -0.00505
 152        4PY         0.00058  -0.00289   0.00060   0.00043  -0.00055
 153        4PZ        -0.00001  -0.00000   0.00000  -0.00000   0.00001
 154        5PX        -0.00689   0.02809  -0.00442  -0.00703   0.01393
 155        5PY        -0.03973  -0.05382   0.04988  -0.02754  -0.01121
 156        5PZ        -0.00001  -0.00002   0.00000  -0.00001   0.00001
 157 9   H  1S          0.06451  -0.10421   0.13718   0.05270  -0.00786
 158        2S          0.15419  -0.26188   0.23084   0.09501   0.03524
 159        3S          0.00146   0.03867   0.01647   0.00719  -0.00630
 160        4PX        -0.00251   0.00305  -0.00424  -0.00063   0.00506
 161        4PY         0.00061   0.00287  -0.00061   0.00044  -0.00055
 162        4PZ        -0.00001  -0.00000   0.00000  -0.00000   0.00000
 163        5PX         0.00717   0.02812  -0.00440   0.00714  -0.01386
 164        5PY        -0.03921   0.05423  -0.04998  -0.02761  -0.01113
 165        5PZ        -0.00003  -0.00000   0.00000   0.00000   0.00001
 166 10  H  1S         -0.20511   0.29358   0.12807   0.00732  -0.21328
 167        2S         -0.22635   0.46907   0.14547  -0.08552  -0.32096
 168        3S         -0.00537  -0.02656   0.01079  -0.00460  -0.02641
 169        4PX         0.01638  -0.01779  -0.00132  -0.00429   0.00692
 170        4PY        -0.00253   0.00086  -0.00120  -0.00430  -0.00053
 171        4PZ        -0.00000  -0.00000   0.00000  -0.00000   0.00000
 172        5PX         0.03981  -0.09504  -0.03041   0.04198   0.07002
 173        5PY         0.00464  -0.00518  -0.00645   0.02259   0.00075
 174        5PZ         0.00001  -0.00001  -0.00001  -0.00000   0.00000
                          16        17        18        19        20
     Eigenvalues --     1.99959   1.99948   1.99947   1.99887   1.00000
   1 1   C  1S         -0.07887  -0.00042   0.12521  -0.00000   0.00014
   2        2S          0.19829   0.00091  -0.27678   0.00001   0.00003
   3        3S          0.37145   0.00128  -0.40764   0.00000  -0.01823
   4        4S         -0.09913  -0.00010   0.04408  -0.00011   0.12591
   5        5PX         0.16134  -0.00073   0.12733   0.00003  -0.21900
   6        5PY         0.07785  -0.00011   0.01558  -0.00001   0.19272
   7        5PZ         0.00023   0.15550   0.00069  -0.39019   0.00001
   8        6PX         0.09402   0.00027  -0.10467   0.00004  -0.09112
   9        6PY         0.06071   0.00020  -0.06427   0.00004   0.07480
  10        6PZ         0.00015   0.10285   0.00043  -0.20244   0.00003
  11        7PX        -0.09932   0.00010   0.00589  -0.00005  -0.00650
  12        7PY        -0.08371   0.00007   0.00801  -0.00006  -0.00591
  13        7PZ        -0.00000   0.01217   0.00006  -0.02196  -0.00000
  14        8D 0        0.00060  -0.00003   0.00786   0.00000  -0.00092
  15        8D+1        0.00002   0.01886   0.00007   0.02299  -0.00000
  16        8D-1        0.00002   0.01687   0.00007  -0.00792  -0.00000
  17        8D+2       -0.00393   0.00009  -0.02268  -0.00000   0.00683
  18        8D-2        0.01398  -0.00000  -0.00294   0.00000  -0.03250
  19        9D 0       -0.00213   0.00003  -0.00530  -0.00000   0.00107
  20        9D+1       -0.00000  -0.00034  -0.00000   0.00123  -0.00000
  21        9D-1        0.00001   0.00440   0.00001  -0.00177   0.00001
  22        9D+2        0.00153  -0.00006   0.01491  -0.00002  -0.00564
  23        9D-2        0.03210   0.00013  -0.04049  -0.00000   0.00119
  24 2   C  1S          0.07885  -0.00059   0.12511   0.00004   0.05150
  25        2S         -0.19830   0.00132  -0.27651  -0.00009  -0.11182
  26        3S         -0.37116   0.00201  -0.40852  -0.00020  -0.26341
  27        4S          0.09914  -0.00031   0.04501   0.00010  -0.24931
  28        5PX         0.16129   0.00039  -0.12753   0.00004   0.29776
  29        5PY        -0.07780  -0.00000   0.01571  -0.00001   0.46516
  30        5PZ        -0.00008  -0.15509  -0.00056  -0.39037   0.00001
  31        6PX         0.09401  -0.00055   0.10078   0.00010   0.09955
  32        6PY        -0.06057   0.00033  -0.06378  -0.00009   0.25861
  33        6PZ        -0.00007  -0.10266  -0.00036  -0.20254  -0.00002
  34        7PX        -0.09930   0.00014  -0.00461  -0.00005   0.01002
  35        7PY         0.08376  -0.00014   0.00737   0.00005   0.02063
  36        7PZ        -0.00001  -0.01214  -0.00005  -0.02194   0.00001
  37        8D 0       -0.00061  -0.00003   0.00786   0.00000  -0.00391
  38        8D+1        0.00002   0.01886   0.00008  -0.02298  -0.00000
  39        8D-1       -0.00001  -0.01687  -0.00007  -0.00795  -0.00000
  40        8D+2        0.00393   0.00009  -0.02271  -0.00000   0.01202
  41        8D-2        0.01400  -0.00002   0.00292   0.00000   0.00625
  42        9D 0        0.00212   0.00002  -0.00532   0.00000   0.01176
  43        9D+1       -0.00000  -0.00034  -0.00000  -0.00124  -0.00000
  44        9D-1       -0.00000  -0.00441  -0.00001  -0.00176  -0.00001
  45        9D+2       -0.00156  -0.00007   0.01459   0.00002  -0.00568
  46        9D-2        0.03211  -0.00020   0.03955   0.00001  -0.03067
  47 3   C  1S          0.02218  -0.00009   0.01609  -0.00000  -0.01183
  48        2S         -0.04167   0.00014  -0.02206   0.00000   0.02263
  49        3S          0.09300  -0.00055   0.10677   0.00004   0.01353
  50        4S         -0.15353   0.00016   0.02064  -0.00018   0.08916
  51        5PX        -0.01619  -0.00038   0.08885  -0.00000  -0.02859
  52        5PY         0.29777  -0.00096   0.16350   0.00007  -0.09434
  53        5PZ        -0.00034  -0.35512  -0.00140  -0.08601   0.00001
  54        6PX         0.09527   0.00000  -0.03636   0.00007   0.03887
  55        6PY        -0.01009   0.00047  -0.10866  -0.00010   0.01881
  56        6PZ        -0.00017  -0.21134  -0.00084  -0.03565   0.00002
  57        7PX        -0.01770  -0.00000   0.00630  -0.00004   0.02406
  58        7PY         0.11145  -0.00023   0.02485   0.00006  -0.03502
  59        7PZ        -0.00005  -0.03150  -0.00012  -0.00181  -0.00001
  60        8D 0        0.00282  -0.00002   0.00419  -0.00000  -0.00246
  61        8D+1       -0.00001  -0.01020  -0.00004  -0.00751  -0.00000
  62        8D-1       -0.00000  -0.00142  -0.00001   0.02287  -0.00000
  63        8D+2        0.00873   0.00001  -0.00470   0.00001   0.03058
  64        8D-2        0.01844  -0.00009   0.01667   0.00001  -0.01548
  65        9D 0       -0.00680  -0.00002   0.00586  -0.00001  -0.01114
  66        9D+1        0.00003   0.00423   0.00000  -0.00075   0.00002
  67        9D-1        0.00001  -0.00105  -0.00001   0.00487   0.00000
  68        9D+2       -0.00229   0.00011  -0.02487   0.00002  -0.00677
  69        9D-2       -0.07500   0.00039  -0.07663  -0.00005   0.02509
  70 4   C  1S         -0.01993   0.00010  -0.01939  -0.00000   0.02221
  71        2S          0.04862  -0.00020   0.03901   0.00001  -0.06013
  72        3S          0.16613  -0.00101   0.20720   0.00006  -0.12549
  73        4S          0.21484  -0.00002  -0.04449   0.00023  -0.03493
[...]
 (Enter /home/ubuntu/g16/l103.exe)

 GradGradGradGradGradGradGradGradGradGradGradGradGradGradGradGradGradGrad
 Berny optimization.
 Red2BG is reusing G-inverse.
 Internal  Forces:  Max     0.000069094 RMS     0.000020774
 Search for a local minimum.
 Step number   1 out of a maximum of    2
 All quantities printed in internal units (Hartrees-Bohrs-Radians)
 Second derivative matrix not updated -- analytic derivatives used.
 ITU=  0
     Eigenvalues ---    0.01547   0.01747   0.01788   0.02619   0.02790
     Eigenvalues ---    0.02967   0.03495   0.10330   0.10367   0.11484
     Eigenvalues ---    0.11840   0.17205   0.18239   0.20441   0.27197
     Eigenvalues ---    0.35122   0.35450   0.35712   0.35906   0.40239
     Eigenvalues ---    0.40469   0.45367   0.46071   0.50176
 Angle between quadratic step and forces=  23.00 degrees.
 Linear search not attempted -- first point.
 Iteration  1 RMS(Cart)=  0.00020432 RMS(Int)=  0.00000006
 Iteration  2 RMS(Cart)=  0.00000006 RMS(Int)=  0.00000001
 ITry= 1 IFail=0 DXMaxC= 7.81D-04 DCOld= 1.00D+10 DXMaxT= 3.00D-01 DXLimC= 3.00D+00 Rises=F
 Variable       Old X    -DE/DX   Delta X   Delta X   Delta X     New X
                                 (Linear)    (Quad)   (Total)
    R1        2.64820   0.00002   0.00000   0.00007   0.00007   2.64827
    R2        2.61099   0.00001   0.00000  -0.00003  -0.00003   2.61096
    R3        2.61099   0.00001   0.00000  -0.00003  -0.00003   2.61096
    R4        2.66266   0.00001   0.00000   0.00005   0.00005   2.66271
    R5        2.06467  -0.00002   0.00000  -0.00004  -0.00004   2.06463
    R6        2.63873  -0.00002   0.00000  -0.00005  -0.00005   2.63868
    R7        2.06133   0.00000   0.00000   0.00001   0.00001   2.06134
    R8        2.66266   0.00001   0.00000   0.00005   0.00005   2.66271
    R9        2.06133   0.00000   0.00000   0.00001   0.00001   2.06134
   R10        2.06467  -0.00002   0.00000  -0.00004  -0.00004   2.06463
    A1        2.11124  -0.00002   0.00000  -0.00008  -0.00008   2.11116
    A2        2.11124  -0.00002   0.00000  -0.00008  -0.00008   2.11116
    A3        2.07024   0.00003   0.00000   0.00015   0.00015   2.07039
    A4        2.10538   0.00004   0.00000   0.00041   0.00041   2.10579
    A5        2.10757  -0.00007   0.00000  -0.00056  -0.00056   2.10701
    A6        2.10170  -0.00001   0.00000  -0.00007  -0.00007   2.10163
    A7        2.08471   0.00001   0.00000   0.00005   0.00005   2.08476
    A8        2.09677  -0.00000   0.00000   0.00002   0.00002   2.09679
    A9        2.10170  -0.00001   0.00000  -0.00007  -0.00007   2.10163
   A10        2.09677  -0.00000   0.00000   0.00002   0.00002   2.09679
   A11        2.08471   0.00001   0.00000   0.00005   0.00005   2.08476
   A12        2.07024   0.00003   0.00000   0.00015   0.00015   2.07039
   A13        2.10538   0.00004   0.00000   0.00040   0.00040   2.10579
   A14        2.10756  -0.00007   0.00000  -0.00056  -0.00056   2.10701
    D1       -0.00000   0.00000   0.00000   0.00000   0.00000   0.00000
    D2        0.00002  -0.00000   0.00000  -0.00002  -0.00002   0.00000
    D3        3.14159   0.00000   0.00000   0.00000   0.00000  -3.14159
    D4       -0.00007   0.00000   0.00000   0.00007   0.00007   0.00000
    D5       -3.14152  -0.00000   0.00000  -0.00007  -0.00007   3.14159
    D6        0.00013  -0.00000   0.00000  -0.00013  -0.00013  -0.00000
    D7       -3.14151  -0.00000   0.00000  -0.00008  -0.00008   3.14159
    D8        3.14159   0.00000   0.00000   0.00001   0.00001  -3.14159
    D9       -0.00006   0.00000   0.00000   0.00006   0.00006  -0.00000
   D10       -0.00012   0.00000   0.00000   0.00012   0.00012   0.00000
   D11        3.14156   0.00000   0.00000   0.00003   0.00003   3.14159
   D12        3.14152   0.00000   0.00000   0.00007   0.00007  -3.14159
   D13        0.00002  -0.00000   0.00000  -0.00002  -0.00002   0.00000
   D14        0.00005  -0.00000   0.00000  -0.00005  -0.00005   0.00000
   D15       -3.14153  -0.00000   0.00000  -0.00007  -0.00007   3.14159
   D16        3.14155   0.00000   0.00000   0.00004   0.00004  -3.14159
   D17       -0.00003   0.00000   0.00000   0.00003   0.00003   0.00000
         Item               Value     Threshold  Converged?
 Maximum Force            0.000069     0.000450     YES
 RMS     Force            0.000021     0.000300     YES
 Maximum Displacement     0.000781     0.001800     YES
 RMS     Displacement     0.000204     0.001200     YES
 Predicted change in Energy=-6.473207D-08
 Optimization completed.
    -- Stationary point found.
                           ----------------------------
                           !   Optimized Parameters   !
                           ! (Angstroms and Degrees)  !
 --------------------------                            --------------------------
 ! Name  Definition              Value          Derivative Info.                !
 --------------------------------------------------------------------------------
 ! R1    R(1,2)                  1.4014         -DE/DX =    0.0                 !
 ! R2    R(1,6)                  1.3817         -DE/DX =    0.0                 !
 ! R3    R(2,3)                  1.3817         -DE/DX =    0.0                 !
 ! R4    R(3,4)                  1.409          -DE/DX =    0.0                 !
 ! R5    R(3,7)                  1.0926         -DE/DX =    0.0                 !
 ! R6    R(4,5)                  1.3964         -DE/DX =    0.0                 !
 ! R7    R(4,8)                  1.0908         -DE/DX =    0.0                 !
 ! R8    R(5,6)                  1.409          -DE/DX =    0.0                 !
 ! R9    R(5,9)                  1.0908         -DE/DX =    0.0                 !
 ! R10   R(6,10)                 1.0926         -DE/DX =    0.0                 !
 ! A1    A(2,1,6)              120.9654         -DE/DX =    0.0                 !
 ! A2    A(1,2,3)              120.9654         -DE/DX =    0.0                 !
 ! A3    A(2,3,4)              118.616          -DE/DX =    0.0                 !
 ! A4    A(2,3,7)              120.6292         -DE/DX =    0.0                 !
 ! A5    A(4,3,7)              120.7549         -DE/DX =   -0.0001              !
 ! A6    A(3,4,5)              120.4186         -DE/DX =    0.0                 !
 ! A7    A(3,4,8)              119.4453         -DE/DX =    0.0                 !
 ! A8    A(5,4,8)              120.136          -DE/DX =    0.0                 !
 ! A9    A(4,5,6)              120.4188         -DE/DX =    0.0                 !
 ! A10   A(4,5,9)              120.136          -DE/DX =    0.0                 !
 ! A11   A(6,5,9)              119.4452         -DE/DX =    0.0                 !
 ! A12   A(1,6,5)              118.6159         -DE/DX =    0.0                 !
 ! A13   A(1,6,10)             120.6296         -DE/DX =    0.0                 !
 ! A14   A(5,6,10)             120.7545         -DE/DX =   -0.0001              !
 ! D1    D(6,1,2,3)             -0.0001         -DE/DX =    0.0                 !
 ! D2    D(2,1,6,5)              0.0009         -DE/DX =    0.0                 !
 ! D3    D(2,1,6,10)          -180.0002         -DE/DX =    0.0                 !
 ! D4    D(1,2,3,4)             -0.0041         -DE/DX =    0.0                 !
 ! D5    D(1,2,3,7)            180.0039         -DE/DX =    0.0                 !
 ! D6    D(2,3,4,5)              0.0077         -DE/DX =    0.0                 !
 ! D7    D(2,3,4,8)            180.0045         -DE/DX =    0.0                 !
 ! D8    D(7,3,4,5)           -180.0004         -DE/DX =    0.0                 !
 ! D9    D(7,3,4,8)             -0.0035         -DE/DX =    0.0                 !
 ! D10   D(3,4,5,6)             -0.0071         -DE/DX =    0.0                 !
 ! D11   D(3,4,5,9)            179.9982         -DE/DX =    0.0                 !
 ! D12   D(8,4,5,6)           -180.0039         -DE/DX =    0.0                 !
 ! D13   D(8,4,5,9)              0.0014         -DE/DX =    0.0                 !
 ! D14   D(4,5,6,1)              0.0027         -DE/DX =    0.0                 !
 ! D15   D(4,5,6,10)           180.0038         -DE/DX =    0.0                 !
 ! D16   D(9,5,6,1)           -180.0025         -DE/DX =    0.0                 !
 ! D17   D(9,5,6,10)            -0.0015         -DE/DX =    0.0                 !
 --------------------------------------------------------------------------------
 GradGradGradGradGradGradGradGradGradGradGradGradGradGradGradGradGradGrad

 Leave Link  103 at Sat Jun 27 03:17:29 2020, MaxMem=   524288000 cpu:               0.0 elap:               0.0
 (Enter /home/ubuntu/g16/l9999.exe)

 ----------------------------------------------------------------------

 Electric dipole moment (input orientation):
 (Debye = 10**-18 statcoulomb cm , SI units = C m)
                  (au)            (Debye)         (10**-30 SI)
   Tot        0.652266D+00      0.165789D+01      0.553014D+01
   x          0.595790D+00      0.151435D+01      0.505132D+01
   y         -0.264725D+00     -0.672863D+00     -0.224443D+01
   z          0.201361D-01      0.511808D-01      0.170721D+00

 Dipole polarizability, Alpha (input orientation).
 (esu units = cm**3 , SI units = C**2 m**2 J**-1)
 Alpha(0;0):
               (au)            (10**-24 esu)      (10**-40 SI)
   iso        0.670851D+02      0.994098D+01      0.110608D+02
   aniso      0.344085D+02      0.509882D+01      0.567320D+01
   xx         0.769915D+02      0.114090D+02      0.126942D+02
   yx         0.160965D+01      0.238525D+00      0.265395D+00
   yy         0.799423D+02      0.118462D+02      0.131807D+02
   zx         0.111283D+01      0.164904D+00      0.183480D+00
   zy         0.748813D-01      0.110963D-01      0.123463D-01
   zz         0.443215D+02      0.656776D+01      0.730762D+01

 ----------------------------------------------------------------------

 Dipole orientation:
     6         -0.63979197         -1.58323167         -1.87299633
     6          0.40078937          0.85195635         -1.87299549
     6          0.92881089          2.08724651          0.36587619
     6          0.39906590          0.84754471          2.66201725
     6         -0.63766278         -1.57899075          2.66201526
     6         -1.16752262         -2.81864745          0.36587404
     1          1.73997471          3.98586020          0.35376055
     1          0.80570033          1.79921051          4.44473156
     1         -1.04427128         -2.53066907          4.44472681
     1         -1.97880538         -4.71720925          0.35377360

 Electric dipole moment (dipole orientation):
 (Debye = 10**-18 statcoulomb cm , SI units = C m)
                  (au)            (Debye)         (10**-30 SI)
   Tot        0.652266D+00      0.165789D+01      0.553014D+01
   x          0.000000D+00      0.000000D+00      0.000000D+00
   y          0.000000D+00      0.000000D+00      0.000000D+00
   z          0.652266D+00      0.165789D+01      0.553014D+01

 Dipole polarizability, Alpha (dipole orientation).
 (esu units = cm**3 , SI units = C**2 m**2 J**-1)
 Alpha(0;0):
               (au)            (10**-24 esu)      (10**-40 SI)
   iso        0.670851D+02      0.994098D+01      0.110608D+02
   aniso      0.344085D+02      0.509882D+01      0.567320D+01
   xx         0.498995D+02      0.739434D+01      0.822731D+01
   yx         0.131429D+02      0.194757D+01      0.216696D+01
   yy         0.750419D+02      0.111201D+02      0.123727D+02
   zx         0.143214D-02      0.212221D-03      0.236127D-03
   zy        -0.608518D-03     -0.901730D-04     -0.100331D-03
   zz         0.763139D+02      0.113086D+02      0.125825D+02

 ----------------------------------------------------------------------
 1\1\GINC-LC06-4-8\Freq\UB3LYP\Aug-CC-pVDZ\C6H4(3)\UBUNTU\27-Jun-2020\0
 \\#P Geom=AllCheck Guess=TCheck SCRF=Check GenChk UB3LYP/Aug-CC-pVDZ F
 req\\t-C6H4_UB3LYP-aug-cc-pVDZ\\0,3\C,-1.271165584,-0.4234314372,-0.06
 1376918\C,-0.7027675916,0.8573295504,-0.041349366\C,0.6677578466,1.026
 2099505,0.0053029114\C,1.488258926,-0.1189385278,0.0326211917\C,0.9218
 956432,-1.3951189818,0.0125897033\C,-0.4773279654,-1.5539909748,-0.035
 0473711\H,1.1050438473,2.0273421884,0.0207842371\H,2.5720764062,-0.001
 2954536,0.0695815235\H,1.561459629,-2.2785043981,0.0338597493\H,-0.926
 3211573,-2.5499219159,-0.0508556613\\Version=ES64L-G16RevA.03\State=3-
 A\HF=-230.8893674\S2=2.00787\S2-1=0.\S2A=2.000034\RMSD=1.217e-09\RMSF=
 2.542e-05\ZeroPoint=0.074032\Thermal=0.0784495\Dipole=0.5957902,-0.264
 7246,0.0201361\DipoleDeriv=-0.0604755,0.0414424,0.0000856,-0.0251868,0
 .0377658,-0.0007997,0.0000505,0.0014747,-0.0627713,-0.0145613,0.016344
 2,0.0016527,0.0829748,-0.0082071,0.0028501,0.0016981,0.0005746,-0.0627
 161,-0.09852,0.006619,-0.00062,-0.0262245,-0.0231445,-0.000855,-0.0006
 268,0.0003043,-0.0803561,0.1029341,-0.0074892,0.0087366,-0.0068672,0.0
 005579,-0.0001539,0.008722,-0.000176,-0.1531982,0.0536312,-0.051461,0.
 007017,-0.0520819,0.04992,-0.001655,0.0070161,-0.001652,-0.1532578,-0.
 0473329,0.0200774,0.0011355,0.0529195,-0.0743947,0.0018073,0.0011528,0
 .0006775,-0.0802951,0.0688173,-0.0592032,-0.0032815,-0.0256532,-0.0021
 705,-0.0009667,-0.0032704,-0.0021309,0.1641241,-0.0848514,-0.0187759,-
 0.0074024,-0.0090855,0.0591754,-0.0003513,-0.0073908,-0.0006806,0.1321
 157,0.0083097,0.0751762,-0.0041775,0.0654864,-0.0340972,0.0021325,-0.0
 041938,0.0024772,0.1322261,0.0720487,-0.0227298,-0.003146,-0.0562816,-
 0.0054052,-0.0020083,-0.0031575,-0.0008688,0.1641287\Polar=76.991549,1
 .609648,79.9422594,1.1128261,0.0748813,44.3214659\Quadrupole=0.134455,
 2.6001241,-2.7345791,1.3611205,0.0985518,0.0492938\PG=C01 [X(C6H4)]\NI
 mag=0\\0.35696011,-0.01033396,0.60101786,0.01023290,-0.00004562,0.0559
 1127,-0.12439864,-0.09811454,-0.00300409,0.50118942,-0.10783778,-0.310
 78112,-0.00381501,0.12011909,0.45661666,-0.00300899,-0.00348425,-0.037
 69622,0.01520899,0.00430477,0.05608298,-0.01208871,-0.07750397,-0.0008
 4443,-0.33751327,-0.01018807,-0.00982799,0.62882293,-0.03437254,0.0278
 6230,-0.00115869,-0.05184813,-0.10610832,-0.00179575,0.04951840,0.6635
 5123,-0.00082110,-0.00262581,0.01144830,-0.00985287,-0.00037958,-0.048
 70187,0.01738719,0.00199523,0.11904188,-0.00268410,0.00144334,-0.00009
 320,-0.04759086,0.01411303,-0.00194889,-0.17276617,0.13054129,-0.00368
 831,0.71782488,0.00650573,-0.07144530,0.00018101,0.07007313,0.04802242
 ,0.00240322,0.05549305,-0.24049805,0.00179518,0.02203142,0.64338556,-0
 .00008991,0.00000927,0.00007454,-0.00191605,0.00050172,0.00988332,-0.0
 0373017,0.00434686,-0.06250854,0.02016793,0.00104317,0.12644372,-0.036
 85208,0.07978631,-0.00154514,-0.04443027,-0.03125272,-0.00153020,0.053
 42833,-0.00831228,0.00156445,-0.15533962,-0.05488141,-0.00328063,0.654
 61232,0.02382622,0.03727085,0.00082433,-0.03631528,-0.02964948,-0.0012
 5042,0.03510278,-0.05563181,0.00115592,-0.11162086,-0.30605178,-0.0039
 4399,-0.03514323,0.70667449,-0.00157739,0.00272769,0.00989620,-0.00153
 456,-0.00108047,0.00002485,0.00158890,-0.00031616,0.00736833,-0.003311
 32,-0.00201373,-0.06009461,0.01796849,-0.00086461,0.12636723,-0.179285
 63,0.09126586,-0.00439581,0.06550762,0.03581178,0.00185673,-0.05182621
 ,0.02752916,-0.00161448,-0.01986792,-0.07460727,-0.00096458,-0.3024121
 1,0.01327772,-0.00815152,0.59833702,0.13292586,-0.26452480,0.00439403,
 -0.00731948,-0.04982651,-0.00028391,0.02320682,-0.00599349,0.00078820,
 -0.03119237,0.01775200,-0.00105550,-0.06177085,-0.11069625,-0.00212505
 ,0.02194635,0.69407402,-0.00437152,0.00297753,-0.04851356,0.00183236,0
 .00118225,0.01154060,-0.00161620,0.00093439,-0.00394980,-0.00094238,-0
 .00253155,0.00728103,-0.00819042,0.00042643,-0.06266234,0.01631757,0.0
 0107008,0.11900422,-0.00559228,-0.00115020,-0.00024996,-0.01049999,-0.
 02687359,-0.00047154,-0.09508039,-0.10604692,-0.00219780,0.01005047,0.
 01736293,0.00010658,-0.00100918,0.00348821,-0.00015389,-0.00052543,0.0
 0108507,0.00001390,0.10146454,-0.00037065,0.00051106,-0.00001319,-0.00
 229522,-0.00104693,-0.00008036,-0.09924945,-0.28371628,-0.00352706,-0.
 01331486,-0.01780992,-0.00046788,0.00393215,-0.00216357,0.00013081,0.0
 0052533,0.00026991,0.00001850,0.11166424,0.30356418,-0.00024934,-0.000
 04092,0.00174246,-0.00045551,-0.00091446,0.00287836,-0.00219609,-0.003
 76148,-0.03242540,0.00008980,0.00057723,0.00721597,-0.00015348,0.00011
 636,0.00355995,0.00001245,0.00003758,-0.00091611,0.00284430,0.00396823
 ,0.01992504,0.00106820,-0.00004370,0.00009319,-0.00093125,0.00392712,-
 0.00023118,-0.01346357,-0.00448242,-0.00059534,-0.33416846,-0.03096349
 ,-0.01020984,-0.00845533,0.00202723,-0.00039690,0.00152769,-0.00284103
 ,-0.00017809,0.00083785,-0.00018540,0.00015454,0.35318708,-0.00033468,
 -0.00095266,-0.00001106,0.00400795,-0.00359013,0.00013108,0.02584237,0
 .00341145,0.00087896,-0.03018489,-0.05889765,-0.00104104,-0.02761463,0
 .00172935,-0.00094056,-0.00258598,-0.00366266,-0.00009398,-0.00044517,
 0.00133479,-0.00001229,0.03250088,0.05975699,0.00009314,-0.00000109,-0
 .00166389,-0.00023048,0.00012875,0.00590567,-0.00057994,-0.00015304,0.
 00394973,-0.01020754,-0.00106767,-0.03511129,-0.00041492,0.00006817,0.
 00323910,-0.00017719,-0.00010288,0.00669403,0.00015425,-0.00000338,-0.
 00369720,0.01122192,0.00112642,0.02444038,-0.00633338,-0.00087813,-0.0
 0041660,0.00014376,-0.00117089,0.00006086,0.00137623,-0.00272294,-0.00
 018276,0.00987167,-0.01103822,0.00021903,-0.15226399,0.13434547,-0.003
 92320,-0.01479605,0.02463738,-0.00062478,0.00037804,-0.00063656,0.0000
 0451,0.00083620,0.00018918,0.00016458,0.15936600,-0.00095892,0.0018183
 5,-0.00003491,-0.00087989,-0.00002707,-0.00002891,-0.00297802,-0.00351
 107,-0.00010753,0.01860367,-0.01661954,0.00062229,0.13356696,-0.241020
 78,0.00442902,-0.00568752,0.00474533,-0.00019290,0.00089651,-0.0008720
 1,0.00002997,-0.00009724,0.00092512,-0.00000050,-0.14280805,0.25381121
 ,-0.00041685,-0.00003135,0.00589927,0.00006027,-0.00003887,-0.00166504
 ,-0.00018285,-0.00009905,0.00669385,0.00023659,-0.00038707,0.00326101,
 -0.00392580,0.00445736,-0.03489409,-0.00063963,0.00083750,0.00394828,0
 .00000537,-0.00002234,0.00023640,0.00016458,0.00000924,-0.00399194,0.0
 0452404,-0.00473065,0.02420879,0.00920650,0.01552900,0.00022313,-0.001
 47652,0.00335202,-0.00010778,-0.00088918,0.00019638,0.00000104,-0.0053
 2989,0.00002413,-0.00030237,-0.00727808,-0.02898826,-0.00050862,-0.096
 65898,-0.10067775,-0.00224043,-0.00002364,-0.00006958,-0.00005118,-0.0
 0043840,-0.00137502,-0.00002382,0.00142153,0.00034250,0.00017429,0.101
 46666,-0.00904929,-0.02077654,-0.00032088,0.00257236,-0.00360952,0.000
 08453,0.00075609,0.00063404,0.00002647,-0.00041976,0.00216226,-0.00001
 490,0.00168970,-0.00046102,0.00005305,-0.10747543,-0.28213756,-0.00379
 076,0.00001893,-0.00007124,-0.00000022,0.00015805,-0.00005460,0.000005
 23,0.00008277,0.00075045,0.00000523,0.11166658,0.30356373,0.00020906,0
 .00051455,0.00290163,-0.00010805,0.00011090,0.00174735,0.00000158,0.00
 000768,-0.00091648,-0.00030270,0.00000022,0.00355482,-0.00049234,-0.00
 098956,0.00719537,-0.00224354,-0.00356005,-0.03242636,-0.00005121,-0.0
 0000332,0.00148052,-0.00002288,-0.00004677,0.00023540,0.00017433,0.000
 01412,-0.00369654,0.00283575,0.00395224,0.01992428\\0.00001864,0.00001
 230,0.00000145,0.00000310,-0.00002162,0.00000372,0.00007191,-0.0000126
 4,-0.00000982,-0.00002817,-0.00000528,0.00000891,-0.00001384,0.0000241
 4,-0.00000909,0.00005551,-0.00004504,0.00000327,-0.00004040,0.00003716
 ,0.00000124,-0.00000443,0.00000681,0.00000074,-0.00000846,-0.00000081,
 0.00000056,-0.00005387,0.00000498,-0.00000098\\\@


 YOU CAN LEAD A BOY TO COLLEGE....
 BUT YOU CANNOT MAKE HIM THINK....
           ELBERT HUBBARD
 Job cpu time:       0 days  0 hours 31 minutes 17.5 seconds.
 Elapsed time:       0 days  0 hours  4 minutes 28.4 seconds.
 File lengths (MBytes):  RWF=     59 Int=      0 D2E=      0 Chk=      5 Scr=      1
 Normal termination of Gaussian 16 at Sat Jun 27 03:17:29 2020.
