 Entering Gaussian System, Link 0=/home/ubuntu/g16/g16
 Input=t-Ph+_UB3LYP-aug-cc-pVDZ-Opt.gjf
 Output=t-Ph+_UB3LYP-aug-cc-pVDZ-Opt.log
 Initial command:
 /home/ubuntu/g16/l1.exe "/home/ubuntu/g16/Gau-20423.inp" -scrdir="/home/ubuntu/g16/"
 Entering Link 1 = /home/ubuntu/g16/l1.exe PID=     20425.
  
 Copyright (c) 1988,1990,1992,1993,1995,1998,2003,2009,2016,
            Gaussian, Inc.  All Rights Reserved.
  
 This is part of the Gaussian(R) 16 program.  It is based on
 the Gaussian(R) 09 system (copyright 2009, Gaussian, Inc.),
 the Gaussian(R) 03 system (copyright 2003, Gaussian, Inc.),
 the Gaussian(R) 98 system (copyright 1998, Gaussian, Inc.),
 the Gaussian(R) 94 system (copyright 1995, Gaussian, Inc.),
 the Gaussian 92(TM) system (copyright 1992, Gaussian, Inc.),
 the Gaussian 90(TM) system (copyright 1990, Gaussian, Inc.),
 the Gaussian 88(TM) system (copyright 1988, Gaussian, Inc.),
 the Gaussian 86(TM) system (copyright 1986, Carnegie Mellon
 University), and the Gaussian 82(TM) system (copyright 1983,
 Carnegie Mellon University). Gaussian is a federally registered
 trademark of Gaussian, Inc.
  
 This software contains proprietary and confidential information,
 including trade secrets, belonging to Gaussian, Inc.
  
 This software is provided under written license and may be
 used, copied, transmitted, or stored only in accord with that
 written license.
  
 The following legend is applicable only to US Government
 contracts under FAR:
  
                    RESTRICTED RIGHTS LEGEND
  
 Use, reproduction and disclosure by the US Government is
 subject to restrictions as set forth in subparagraphs (a)
 and (c) of the Commercial Computer Software - Restricted
 Rights clause in FAR 52.227-19.
  
 Gaussian, Inc.
 340 Quinnipiac St., Bldg. 40, Wallingford CT 06492
  
  
 ---------------------------------------------------------------
 Warning -- This program may not be used in any manner that
 competes with the business of Gaussian, Inc. or will provide
 assistance to any competitor of Gaussian, Inc.  The licensee
 of this program is prohibited from giving any competitor of
 Gaussian, Inc. access to this program.  By using this program,
 the user acknowledges that Gaussian, Inc. is engaged in the
 business of creating and licensing software in the field of
 computational chemistry and represents and warrants to the
 licensee that it is not a competitor of Gaussian, Inc. and that
 it will not use this program in any manner prohibited above.
 ---------------------------------------------------------------
  

 Cite this work as:
 Gaussian 16, Revision A.03,
 M. J. Frisch, G. W. Trucks, H. B. Schlegel, G. E. Scuseria, 
 M. A. Robb, J. R. Cheeseman, G. Scalmani, V. Barone, 
 G. A. Petersson, H. Nakatsuji, X. Li, M. Caricato, A. V. Marenich, 
 J. Bloino, B. G. Janesko, R. Gomperts, B. Mennucci, H. P. Hratchian, 
 J. V. Ortiz, A. F. Izmaylov, J. L. Sonnenberg, D. Williams-Young, 
 F. Ding, F. Lipparini, F. Egidi, J. Goings, B. Peng, A. Petrone, 
 T. Henderson, D. Ranasinghe, V. G. Zakrzewski, J. Gao, N. Rega, 
 G. Zheng, W. Liang, M. Hada, M. Ehara, K. Toyota, R. Fukuda, 
 J. Hasegawa, M. Ishida, T. Nakajima, Y. Honda, O. Kitao, H. Nakai, 
 T. Vreven, K. Throssell, J. A. Montgomery, Jr., J. E. Peralta, 
 F. Ogliaro, M. J. Bearpark, J. J. Heyd, E. N. Brothers, K. N. Kudin, 
 V. N. Staroverov, T. A. Keith, R. Kobayashi, J. Normand, 
 K. Raghavachari, A. P. Rendell, J. C. Burant, S. S. Iyengar, 
 J. Tomasi, M. Cossi, J. M. Millam, M. Klene, C. Adamo, R. Cammi, 
 J. W. Ochterski, R. L. Martin, K. Morokuma, O. Farkas, 
 J. B. Foresman, and D. J. Fox, Gaussian, Inc., Wallingford CT, 2016.
 
 ******************************************
 Gaussian 16:  ES64L-G16RevA.03 25-Dec-2016
                27-Jun-2020 
 ******************************************
 %chk=t-Ph+_UB3LYP-aug-cc-pVDZ-Opt.chk
 %mem=500MW
 %nproc=7
 Will use up to    7 processors via shared memory.
 ----------------------------------------------------------------------
 #p opt=(maxcycles=777) freq ub3lyp/aug-cc-pVDZ pop=(Bonding,AllOrbital
 s,mk,no,nboread)
 ----------------------------------------------------------------------
 1/6=777,18=20,19=15,26=3,38=1/1,3;
 2/9=110,12=2,17=6,18=5,40=1/2;
 3/5=16,7=10,11=2,25=1,30=1,71=1,74=-5,116=2/1,2,3;
 4//1;
 5/5=2,38=5/2;
 6/7=2,8=2,9=2,10=2,15=8,20=1,22=-1,27=20,28=1,31=1,40=2,96=-1/1,2,7;
 7//1,2,3,16;
 1/6=777,18=20,19=15,26=3/3(2);
 2/9=110/2;
 99//99;
 2/9=110/2;
 3/5=16,7=10,11=2,25=1,30=1,71=1,74=-5,116=2/1,2,3;
 4/5=5,16=3,69=1/1;
 5/5=2,38=5/2;
 7//1,2,3,16;
 1/6=777,18=20,19=15,26=3/3(-5);
 2/9=110/2;
 6/7=2,8=2,9=2,10=2,15=8,19=2,20=1,22=-1,27=20,28=1,31=1,40=2,96=-1/1,2,7;
 99/9=1/99;
 Leave Link    1 at Sat Jun 27 03:17:29 2020, MaxMem=   524288000 cpu:               0.5 elap:               0.1
 (Enter /home/ubuntu/g16/l101.exe)
 ------------------------
 t-Ph+_UB3LYP-aug-cc-pVDZ
 ------------------------
 Symbolic Z-matrix:
 Charge =  1 Multiplicity = 3
 C                    -1.48657  -1.52534  -1.34484 
 C                    -0.11092  -1.43118  -1.30532 
 C                     0.40385  -0.22209  -0.78282 
 C                    -0.32083   0.89143  -0.30018 
 C                    -1.69439   0.77427  -0.34883 
 C                    -2.27973  -0.42856  -0.86962 
 H                    -1.97867  -2.41805  -1.73254 
 H                     0.54651  -2.22923  -1.65215 
 H                     0.18362   1.77855   0.08417 
 H                    -2.34084   1.57978   0.00199 
 H                    -3.36824  -0.51127  -0.90546 
 
 ITRead=  0  0  0  0  0  0  0  0  0  0  0
 MicOpt= -1 -1 -1 -1 -1 -1 -1 -1 -1 -1 -1
 NAtoms=     11 NQM=       11 NQMF=       0 NMMI=      0 NMMIF=      0
                NMic=       0 NMicF=      0.
                    Isotopes and Nuclear Properties:
 (Nuclear quadrupole moments (NQMom) in fm**2, nuclear magnetic moments (NMagM)
  in nuclear magnetons)

  Atom         1           2           3           4           5           6           7           8           9          10
 IAtWgt=          12          12          12          12          12          12           1           1           1           1
 AtmWgt=  12.0000000  12.0000000  12.0000000  12.0000000  12.0000000  12.0000000   1.0078250   1.0078250   1.0078250   1.0078250
 NucSpn=           0           0           0           0           0           0           1           1           1           1
 AtZEff=  -0.0000000  -0.0000000  -0.0000000  -0.0000000  -0.0000000  -0.0000000  -0.0000000  -0.0000000  -0.0000000  -0.0000000
 NQMom=    0.0000000   0.0000000   0.0000000   0.0000000   0.0000000   0.0000000   0.0000000   0.0000000   0.0000000   0.0000000
 NMagM=    0.0000000   0.0000000   0.0000000   0.0000000   0.0000000   0.0000000   2.7928460   2.7928460   2.7928460   2.7928460
 AtZNuc=   6.0000000   6.0000000   6.0000000   6.0000000   6.0000000   6.0000000   1.0000000   1.0000000   1.0000000   1.0000000

  Atom        11
 IAtWgt=           1
 AtmWgt=   1.0078250
 NucSpn=           1
 AtZEff=  -0.0000000
 NQMom=    0.0000000
 NMagM=    2.7928460
 AtZNuc=   1.0000000
 Leave Link  101 at Sat Jun 27 03:17:29 2020, MaxMem=   524288000 cpu:               1.2 elap:               0.2
 (Enter /home/ubuntu/g16/l103.exe)

 GradGradGradGradGradGradGradGradGradGradGradGradGradGradGradGradGradGrad
 Berny optimization.
 Initialization pass.
                           ----------------------------
                           !    Initial Parameters    !
                           ! (Angstroms and Degrees)  !
 --------------------------                            --------------------------
 ! Name  Definition              Value          Derivative Info.                !
 --------------------------------------------------------------------------------
 ! R1    R(1,2)                  1.3794         estimate D2E/DX2                !
 ! R2    R(1,6)                  1.4345         estimate D2E/DX2                !
 ! R3    R(1,7)                  1.0906         estimate D2E/DX2                !
 ! R4    R(2,3)                  1.4142         estimate D2E/DX2                !
 ! R5    R(2,8)                  1.0906         estimate D2E/DX2                !
 ! R6    R(3,4)                  1.4135         estimate D2E/DX2                !
 ! R7    R(4,5)                  1.3794         estimate D2E/DX2                !
 ! R8    R(4,9)                  1.0905         estimate D2E/DX2                !
 ! R9    R(5,6)                  1.4355         estimate D2E/DX2                !
 ! R10   R(5,10)                 1.0908         estimate D2E/DX2                !
 ! R11   R(6,11)                 1.0922         estimate D2E/DX2                !
 ! A1    A(2,1,6)              119.3216         estimate D2E/DX2                !
 ! A2    A(2,1,7)              121.0671         estimate D2E/DX2                !
 ! A3    A(6,1,7)              119.6113         estimate D2E/DX2                !
 ! A4    A(1,2,3)              115.5916         estimate D2E/DX2                !
 ! A5    A(1,2,8)              122.827          estimate D2E/DX2                !
 ! A6    A(3,2,8)              121.5813         estimate D2E/DX2                !
 ! A7    A(2,3,4)              127.811          estimate D2E/DX2                !
 ! A8    A(3,4,5)              115.5663         estimate D2E/DX2                !
 ! A9    A(3,4,9)              121.6033         estimate D2E/DX2                !
 ! A10   A(5,4,9)              122.8304         estimate D2E/DX2                !
 ! A11   A(4,5,6)              119.3404         estimate D2E/DX2                !
 ! A12   A(4,5,10)             121.0689         estimate D2E/DX2                !
 ! A13   A(6,5,10)             119.5906         estimate D2E/DX2                !
 ! A14   A(1,6,5)              122.369          estimate D2E/DX2                !
 ! A15   A(1,6,11)             118.8328         estimate D2E/DX2                !
 ! A16   A(5,6,11)             118.7983         estimate D2E/DX2                !
 ! D1    D(6,1,2,3)             -0.0063         estimate D2E/DX2                !
 ! D2    D(6,1,2,8)           -179.9441         estimate D2E/DX2                !
 ! D3    D(7,1,2,3)            179.8863         estimate D2E/DX2                !
 ! D4    D(7,1,2,8)             -0.0515         estimate D2E/DX2                !
 ! D5    D(2,1,6,5)             -0.0394         estimate D2E/DX2                !
 ! D6    D(2,1,6,11)           179.944          estimate D2E/DX2                !
 ! D7    D(7,1,6,5)           -179.9336         estimate D2E/DX2                !
 ! D8    D(7,1,6,11)             0.0498         estimate D2E/DX2                !
 ! D9    D(1,2,3,4)              0.0183         estimate D2E/DX2                !
 ! D10   D(8,2,3,4)            179.957          estimate D2E/DX2                !
 ! D11   D(2,3,4,5)              0.0165         estimate D2E/DX2                !
 ! D12   D(2,3,4,9)            179.9355         estimate D2E/DX2                !
 ! D13   D(3,4,5,6)             -0.061          estimate D2E/DX2                !
 ! D14   D(3,4,5,10)           179.9154         estimate D2E/DX2                !
 ! D15   D(9,4,5,6)           -179.9789         estimate D2E/DX2                !
 ! D16   D(9,4,5,10)            -0.0025         estimate D2E/DX2                !
 ! D17   D(4,5,6,1)              0.0758         estimate D2E/DX2                !
 ! D18   D(4,5,6,11)          -179.9076         estimate D2E/DX2                !
 ! D19   D(10,5,6,1)          -179.901          estimate D2E/DX2                !
 ! D20   D(10,5,6,11)            0.1157         estimate D2E/DX2                !
 --------------------------------------------------------------------------------
 Trust Radius=3.00D-01 FncErr=1.00D-07 GrdErr=1.00D-06 EigMax=2.50D+02 EigMin=1.00D-04
 Number of steps in this run=    100 maximum allowed number of steps=    100.
 GradGradGradGradGradGradGradGradGradGradGradGradGradGradGradGradGradGrad

 Leave Link  103 at Sat Jun 27 03:17:29 2020, MaxMem=   524288000 cpu:               0.0 elap:               0.0
 (Enter /home/ubuntu/g16/l202.exe)
                          Input orientation:                          
 ---------------------------------------------------------------------
 Center     Atomic      Atomic             Coordinates (Angstroms)
 Number     Number       Type             X           Y           Z
 ---------------------------------------------------------------------
      1          6           0       -1.486570   -1.525340   -1.344840
      2          6           0       -0.110920   -1.431180   -1.305320
      3          6           0        0.403850   -0.222090   -0.782820
      4          6           0       -0.320830    0.891430   -0.300180
      5          6           0       -1.694390    0.774270   -0.348830
      6          6           0       -2.279730   -0.428560   -0.869620
      7          1           0       -1.978670   -2.418050   -1.732540
      8          1           0        0.546510   -2.229230   -1.652150
      9          1           0        0.183620    1.778550    0.084170
     10          1           0       -2.340840    1.579780    0.001990
     11          1           0       -3.368240   -0.511270   -0.905460
 ---------------------------------------------------------------------
                    Distance matrix (angstroms):
                    1          2          3          4          5
     1  C    0.000000
     2  C    1.379435   0.000000
     3  C    2.363898   1.414176   0.000000
     4  C    2.879417   2.539466   1.413517   0.000000
     5  C    2.514643   2.878586   2.362984   1.379406   0.000000
     6  C    1.434525   2.428748   2.692910   2.429799   1.435495
     7  H    1.090598   2.155208   3.376479   3.968973   3.490899
     8  H    2.173319   1.090591   2.191962   3.509789   3.967529
     9  H    3.968286   3.509958   2.191514   1.090494   2.173244
    10  H    3.490773   3.968310   3.375794   2.155359   1.090788
    11  H    2.182218   3.408263   3.785146   3.408906   2.182710
                    6          7          8          9         10
     6  C    0.000000
     7  H    2.189369   0.000000
     8  H    3.441279   2.533505   0.000000
     9  H    3.442258   5.058397   4.382784   0.000000
    10  H    2.190175   4.372917   5.057818   2.533606   0.000000
    11  H    1.092236   2.500155   4.339839   4.340317   2.500301
                   11
    11  H    0.000000
 Stoichiometry    C6H5(1+,3)
 Framework group  C1[X(C6H5)]
 Deg. of freedom    27
 Full point group                 C1      NOp   1
 Largest Abelian subgroup         C1      NOp   1
 Largest concise Abelian subgroup C1      NOp   1
                         Standard orientation:                         
 ---------------------------------------------------------------------
 Center     Atomic      Atomic             Coordinates (Angstroms)
 Number     Number       Type             X           Y           Z
 ---------------------------------------------------------------------
      1          6           0        1.258320    0.618089   -0.000300
      2          6           0        1.268469   -0.761308   -0.000375
      3          6           0       -0.002440   -1.381536    0.000178
      4          6           0       -1.270994   -0.757997    0.000437
      5          6           0       -1.256321    0.621331   -0.000252
      6          6           0        0.002444    1.311370    0.000177
      7          1           0        2.188320    1.187741    0.001155
      8          1           0        2.189230   -1.345764    0.000166
      9          1           0       -2.193549   -1.339433   -0.000176
     10          1           0       -2.184592    1.194158   -0.001499
     11          1           0        0.003726    2.403605    0.001169
 ---------------------------------------------------------------------
 Rotational constants (GHZ):           6.4081293           5.2671327           2.8909391
 Leave Link  202 at Sat Jun 27 03:17:29 2020, MaxMem=   524288000 cpu:               0.0 elap:               0.0
 (Enter /home/ubuntu/g16/l301.exe)
 Standard basis: Aug-CC-pVDZ (5D, 7F)
 Ernie: Thresh=  0.10000D-02 Tol=  0.10000D-05 Strict=F.
 Ernie:  12 primitive shells out of 185 were deleted.
 There are   195 symmetry adapted cartesian basis functions of A   symmetry.
 There are   183 symmetry adapted basis functions of A   symmetry.
   183 basis functions,   313 primitive gaussians,   195 cartesian basis functions
    21 alpha electrons       19 beta electrons
       nuclear repulsion energy       192.2300368603 Hartrees.
 IExCor=  402 DFT=T Ex+Corr=B3LYP ExCW=0 ScaHFX=  0.200000
 ScaDFX=  0.800000  0.720000  1.000000  0.810000 ScalE2=  1.000000  1.000000
 IRadAn=      5 IRanWt=     -1 IRanGd=            0 ICorTp=0 IEmpDi=  4
 NAtoms=   11 NActive=   11 NUniq=   11 SFac= 1.00D+00 NAtFMM=   60 NAOKFM=F Big=F
 Integral buffers will be    131072 words long.
 Raffenetti 2 integral format.
 Two-electron integral symmetry is turned on.
 Leave Link  301 at Sat Jun 27 03:17:29 2020, MaxMem=   524288000 cpu:               0.2 elap:               0.0
 (Enter /home/ubuntu/g16/l302.exe)
 NPDir=0 NMtPBC=     1 NCelOv=     1 NCel=       1 NClECP=     1 NCelD=      1
         NCelK=      1 NCelE2=     1 NClLst=     1 CellRange=     0.0.
 One-electron integrals computed using PRISM.
 One-electron integral symmetry used in STVInt
 NBasis=   183 RedAO= T EigKep=  4.43D-06  NBF=   183
 NBsUse=   183 1.00D-06 EigRej= -1.00D+00 NBFU=   183
 Precomputing XC quadrature grid using
 IXCGrd= 4 IRadAn=           5 IRanWt=          -1 IRanGd=           0 AccXCQ= 0.00D+00.
 Generated NRdTot=       0 NPtTot=           0 NUsed=           0 NTot=          32
 NSgBfM=   195   195   195   195   195 MxSgAt=    11 MxSgA2=    11.
 Leave Link  302 at Sat Jun 27 03:17:30 2020, MaxMem=   524288000 cpu:               1.7 elap:               0.2
 (Enter /home/ubuntu/g16/l303.exe)
 DipDrv:  MaxL=1.
 Leave Link  303 at Sat Jun 27 03:17:30 2020, MaxMem=   524288000 cpu:               0.2 elap:               0.0
 (Enter /home/ubuntu/g16/l401.exe)
 ExpMin= 2.97D-02 ExpMax= 6.67D+03 ExpMxC= 2.28D+02 IAcc=3 IRadAn=         5 AccDes= 0.00D+00
 Harris functional with IExCor=  402 and IRadAn=       5 diagonalized for initial guess.
 HarFok:  IExCor=  402 AccDes= 0.00D+00 IRadAn=         5 IDoV= 1 UseB2=F ITyADJ=14
 ICtDFT=  3500011 ScaDFX=  1.000000  1.000000  1.000000  1.000000
 FoFCou: FMM=F IPFlag=           0 FMFlag=      100000 FMFlg1=           0
         NFxFlg=           0 DoJE=T BraDBF=F KetDBF=T FulRan=T
         wScrn=  0.000000 ICntrl=       500 IOpCl=  0 I1Cent=   200000004 NGrid=           0
         NMat0=    1 NMatS0=      1 NMatT0=    0 NMatD0=    1 NMtDS0=    0 NMtDT0=    0
 Petite list used in FoFCou.
 Harris En= -231.231491755491    
 JPrj=0 DoOrth=F DoCkMO=F.
 Initial guess <Sx>= 0.0000 <Sy>= 0.0000 <Sz>= 1.0000 <S**2>= 2.0000 S= 1.0000
 Leave Link  401 at Sat Jun 27 03:17:31 2020, MaxMem=   524288000 cpu:               9.4 elap:               1.3
 (Enter /home/ubuntu/g16/l502.exe)
 Keep R1 and R2 ints in memory in canonical form, NReq=290615902.
 FoFCou: FMM=F IPFlag=           0 FMFlag=           0 FMFlg1=           0
         NFxFlg=           0 DoJE=F BraDBF=F KetDBF=F FulRan=T
         wScrn=  0.000000 ICntrl=       600 IOpCl=  0 I1Cent=           0 NGrid=           0
         NMat0=    1 NMatS0=  16836 NMatT0=    0 NMatD0=    1 NMtDS0=    0 NMtDT0=    0
 Symmetry not used in FoFCou.
 Two-electron integral symmetry not used.
 UHF open shell SCF:
 Using DIIS extrapolation, IDIIS=  1040.
 NGot=   524288000 LenX=   240740930 LenY=   240702464
 Requested convergence on RMS density matrix=1.00D-08 within 128 cycles.
 Requested convergence on MAX density matrix=1.00D-06.
 Requested convergence on             energy=1.00D-06.
 No special actions if energy rises.

 Cycle   1  Pass 1  IDiag  1:
 E= -231.186699034254    
 DIIS: error= 1.98D-02 at cycle   1 NSaved=   1.
 NSaved= 1 IEnMin= 1 EnMin= -231.186699034254     IErMin= 1 ErrMin= 1.98D-02
 ErrMax= 1.98D-02  0.00D+00 EMaxC= 1.00D-01 BMatC= 2.33D-01 BMatP= 2.33D-01
 IDIUse=3 WtCom= 8.02D-01 WtEn= 1.98D-01
 Coeff-Com:  0.100D+01
 Coeff-En:   0.100D+01
 Coeff:      0.100D+01
 Gap=     0.313 Goal=   None    Shift=    0.000
 Gap=     0.035 Goal=   None    Shift=    0.000
 GapD=    0.035 DampG=0.250 DampE=0.500 DampFc=0.2500 IDamp=-1.
 Damping current iteration by 2.50D-01
 RMSDP=3.59D-02 MaxDP=9.16D-01              OVMax= 1.78D-01

 Cycle   2  Pass 1  IDiag  1:
 E= -231.208268731942     Delta-E=       -0.021569697688 Rises=F Damp=T
 DIIS: error= 1.10D-02 at cycle   2 NSaved=   2.
 NSaved= 2 IEnMin= 2 EnMin= -231.208268731942     IErMin= 2 ErrMin= 1.10D-02
 ErrMax= 1.10D-02  0.00D+00 EMaxC= 1.00D-01 BMatC= 6.91D-02 BMatP= 2.33D-01
 IDIUse=3 WtCom= 8.90D-01 WtEn= 1.10D-01
 Coeff-Com: -0.874D+00 0.187D+01
 Coeff-En:   0.000D+00 0.100D+01
 Coeff:     -0.778D+00 0.178D+01
 Gap=     0.232 Goal=   None    Shift=    0.000
 Gap=     0.080 Goal=   None    Shift=    0.000
 RMSDP=2.39D-02 MaxDP=7.00D-01 DE=-2.16D-02 OVMax= 1.59D-01

 Cycle   3  Pass 1  IDiag  1:
 E= -231.246142944970     Delta-E=       -0.037874213028 Rises=F Damp=F
 DIIS: error= 7.06D-03 at cycle   3 NSaved=   3.
 NSaved= 3 IEnMin= 3 EnMin= -231.246142944970     IErMin= 3 ErrMin= 7.06D-03
 ErrMax= 7.06D-03  0.00D+00 EMaxC= 1.00D-01 BMatC= 1.70D-02 BMatP= 6.91D-02
 IDIUse=3 WtCom= 9.29D-01 WtEn= 7.06D-02
 Coeff-Com: -0.485D+00 0.907D+00 0.578D+00
 Coeff-En:   0.000D+00 0.000D+00 0.100D+01
 Coeff:     -0.451D+00 0.843D+00 0.608D+00
 Gap=     0.219 Goal=   None    Shift=    0.000
 Gap=     0.079 Goal=   None    Shift=    0.000
 RMSDP=1.51D-03 MaxDP=6.37D-02 DE=-3.79D-02 OVMax= 7.97D-02

 Cycle   4  Pass 1  IDiag  1:
 E= -231.248539581142     Delta-E=       -0.002396636171 Rises=F Damp=F
 DIIS: error= 5.93D-03 at cycle   4 NSaved=   4.
 NSaved= 4 IEnMin= 4 EnMin= -231.248539581142     IErMin= 4 ErrMin= 5.93D-03
 ErrMax= 5.93D-03  0.00D+00 EMaxC= 1.00D-01 BMatC= 1.04D-02 BMatP= 1.70D-02
 IDIUse=3 WtCom= 9.41D-01 WtEn= 5.93D-02
 Coeff-Com: -0.178D+00 0.290D+00 0.438D+00 0.450D+00
 Coeff-En:   0.000D+00 0.000D+00 0.388D+00 0.612D+00
 Coeff:     -0.167D+00 0.273D+00 0.435D+00 0.460D+00
 Gap=     0.212 Goal=   None    Shift=    0.000
 Gap=     0.078 Goal=   None    Shift=    0.000
 RMSDP=6.71D-04 MaxDP=2.02D-02 DE=-2.40D-03 OVMax= 4.14D-02

 Cycle   5  Pass 1  IDiag  1:
 E= -231.251726861229     Delta-E=       -0.003187280087 Rises=F Damp=F
 DIIS: error= 6.67D-04 at cycle   5 NSaved=   5.
 NSaved= 5 IEnMin= 5 EnMin= -231.251726861229     IErMin= 5 ErrMin= 6.67D-04
 ErrMax= 6.67D-04  0.00D+00 EMaxC= 1.00D-01 BMatC= 3.37D-04 BMatP= 1.04D-02
 IDIUse=3 WtCom= 9.93D-01 WtEn= 6.67D-03
 Coeff-Com: -0.219D-02-0.121D-01 0.101D+00 0.197D+00 0.716D+00
 Coeff-En:   0.000D+00 0.000D+00 0.000D+00 0.000D+00 0.100D+01
 Coeff:     -0.217D-02-0.120D-01 0.999D-01 0.196D+00 0.718D+00
 Gap=     0.212 Goal=   None    Shift=    0.000
 Gap=     0.081 Goal=   None    Shift=    0.000
 RMSDP=2.49D-04 MaxDP=1.13D-02 DE=-3.19D-03 OVMax= 6.43D-03

 Cycle   6  Pass 1  IDiag  1:
 E= -231.251835399314     Delta-E=       -0.000108538085 Rises=F Damp=F
 DIIS: error= 3.08D-04 at cycle   6 NSaved=   6.
 NSaved= 6 IEnMin= 6 EnMin= -231.251835399314     IErMin= 6 ErrMin= 3.08D-04
 ErrMax= 3.08D-04  0.00D+00 EMaxC= 1.00D-01 BMatC= 3.38D-05 BMatP= 3.37D-04
 IDIUse=3 WtCom= 9.97D-01 WtEn= 3.08D-03
 Coeff-Com:  0.190D-01-0.364D-01-0.103D-01 0.260D-01 0.268D+00 0.734D+00
 Coeff-En:   0.000D+00 0.000D+00 0.000D+00 0.000D+00 0.000D+00 0.100D+01
 Coeff:      0.189D-01-0.363D-01-0.103D-01 0.260D-01 0.267D+00 0.734D+00
 Gap=     0.213 Goal=   None    Shift=    0.000
 Gap=     0.081 Goal=   None    Shift=    0.000
 RMSDP=7.06D-05 MaxDP=2.16D-03 DE=-1.09D-04 OVMax= 2.36D-03

 Cycle   7  Pass 1  IDiag  1:
 E= -231.251849953891     Delta-E=       -0.000014554576 Rises=F Damp=F
 DIIS: error= 8.72D-05 at cycle   7 NSaved=   7.
 NSaved= 7 IEnMin= 7 EnMin= -231.251849953891     IErMin= 7 ErrMin= 8.72D-05
 ErrMax= 8.72D-05  0.00D+00 EMaxC= 1.00D-01 BMatC= 3.89D-06 BMatP= 3.38D-05
 IDIUse=1 WtCom= 1.00D+00 WtEn= 0.00D+00
 Coeff-Com:  0.665D-02-0.867D-02-0.222D-01-0.321D-01-0.897D-01 0.176D+00
 Coeff-Com:  0.970D+00
 Coeff:      0.665D-02-0.867D-02-0.222D-01-0.321D-01-0.897D-01 0.176D+00
 Coeff:      0.970D+00
 Gap=     0.213 Goal=   None    Shift=    0.000
 Gap=     0.082 Goal=   None    Shift=    0.000
 RMSDP=3.31D-05 MaxDP=1.51D-03 DE=-1.46D-05 OVMax= 1.27D-03

 Cycle   8  Pass 1  IDiag  1:
 E= -231.251852176860     Delta-E=       -0.000002222969 Rises=F Damp=F
 DIIS: error= 2.60D-05 at cycle   8 NSaved=   8.
 NSaved= 8 IEnMin= 8 EnMin= -231.251852176860     IErMin= 8 ErrMin= 2.60D-05
 ErrMax= 2.60D-05  0.00D+00 EMaxC= 1.00D-01 BMatC= 1.89D-07 BMatP= 3.89D-06
 IDIUse=1 WtCom= 1.00D+00 WtEn= 0.00D+00
 Coeff-Com:  0.454D-03 0.455D-04-0.258D-02-0.628D-02-0.304D-01 0.605D-02
 Coeff-Com:  0.151D+00 0.882D+00
 Coeff:      0.454D-03 0.455D-04-0.258D-02-0.628D-02-0.304D-01 0.605D-02
 Coeff:      0.151D+00 0.882D+00
 Gap=     0.213 Goal=   None    Shift=    0.000
 Gap=     0.082 Goal=   None    Shift=    0.000
 RMSDP=7.76D-06 MaxDP=4.44D-04 DE=-2.22D-06 OVMax= 2.59D-04

 Cycle   9  Pass 1  IDiag  1:
 E= -231.251852247109     Delta-E=       -0.000000070249 Rises=F Damp=F
 DIIS: error= 1.70D-05 at cycle   9 NSaved=   9.
 NSaved= 9 IEnMin= 9 EnMin= -231.251852247109     IErMin= 9 ErrMin= 1.70D-05
 ErrMax= 1.70D-05  0.00D+00 EMaxC= 1.00D-01 BMatC= 9.04D-08 BMatP= 1.89D-07
 IDIUse=1 WtCom= 1.00D+00 WtEn= 0.00D+00
 Coeff-Com: -0.561D-03 0.106D-02 0.163D-02 0.114D-02-0.428D-02-0.182D-01
 Coeff-Com: -0.510D-01 0.458D+00 0.612D+00
 Coeff:     -0.561D-03 0.106D-02 0.163D-02 0.114D-02-0.428D-02-0.182D-01
 Coeff:     -0.510D-01 0.458D+00 0.612D+00
 Gap=     0.213 Goal=   None    Shift=    0.000
 Gap=     0.082 Goal=   None    Shift=    0.000
 RMSDP=3.31D-06 MaxDP=1.10D-04 DE=-7.02D-08 OVMax= 1.52D-04

 Cycle  10  Pass 1  IDiag  1:
 E= -231.251852279795     Delta-E=       -0.000000032686 Rises=F Damp=F
 DIIS: error= 6.02D-06 at cycle  10 NSaved=  10.
 NSaved=10 IEnMin=10 EnMin= -231.251852279795     IErMin=10 ErrMin= 6.02D-06
 ErrMax= 6.02D-06  0.00D+00 EMaxC= 1.00D-01 BMatC= 7.84D-09 BMatP= 9.04D-08
 IDIUse=1 WtCom= 1.00D+00 WtEn= 0.00D+00
 Coeff-Com: -0.858D-04 0.675D-04 0.522D-03 0.992D-03 0.337D-02-0.349D-02
 Coeff-Com: -0.248D-01-0.789D-01 0.136D+00 0.967D+00
 Coeff:     -0.858D-04 0.675D-04 0.522D-03 0.992D-03 0.337D-02-0.349D-02
 Coeff:     -0.248D-01-0.789D-01 0.136D+00 0.967D+00
 Gap=     0.213 Goal=   None    Shift=    0.000
 Gap=     0.082 Goal=   None    Shift=    0.000
 RMSDP=1.95D-06 MaxDP=6.37D-05 DE=-3.27D-08 OVMax= 5.79D-05

 Cycle  11  Pass 1  IDiag  1:
 E= -231.251852285070     Delta-E=       -0.000000005274 Rises=F Damp=F
 DIIS: error= 3.00D-06 at cycle  11 NSaved=  11.
 NSaved=11 IEnMin=11 EnMin= -231.251852285070     IErMin=11 ErrMin= 3.00D-06
 ErrMax= 3.00D-06  0.00D+00 EMaxC= 1.00D-01 BMatC= 3.60D-09 BMatP= 7.84D-09
 IDIUse=1 WtCom= 1.00D+00 WtEn= 0.00D+00
 Coeff-Com:  0.470D-04-0.146D-03 0.627D-04 0.416D-03 0.290D-02 0.759D-03
 Coeff-Com: -0.655D-02-0.133D+00-0.768D-02 0.566D+00 0.578D+00
 Coeff:      0.470D-04-0.146D-03 0.627D-04 0.416D-03 0.290D-02 0.759D-03
 Coeff:     -0.655D-02-0.133D+00-0.768D-02 0.566D+00 0.578D+00
 Gap=     0.213 Goal=   None    Shift=    0.000
 Gap=     0.082 Goal=   None    Shift=    0.000
 RMSDP=8.79D-07 MaxDP=3.31D-05 DE=-5.27D-09 OVMax= 5.32D-05

 Cycle  12  Pass 1  IDiag  1:
 E= -231.251852286857     Delta-E=       -0.000000001787 Rises=F Damp=F
 DIIS: error= 1.55D-06 at cycle  12 NSaved=  12.
 NSaved=12 IEnMin=12 EnMin= -231.251852286857     IErMin=12 ErrMin= 1.55D-06
 ErrMax= 1.55D-06  0.00D+00 EMaxC= 1.00D-01 BMatC= 6.82D-10 BMatP= 3.60D-09
 IDIUse=1 WtCom= 1.00D+00 WtEn= 0.00D+00
 Coeff-Com:  0.481D-04-0.569D-04-0.176D-03-0.370D-03-0.869D-03 0.138D-02
 Coeff-Com:  0.937D-02 0.668D-02-0.327D-01-0.342D+00 0.180D+00 0.118D+01
 Coeff:      0.481D-04-0.569D-04-0.176D-03-0.370D-03-0.869D-03 0.138D-02
 Coeff:      0.937D-02 0.668D-02-0.327D-01-0.342D+00 0.180D+00 0.118D+01
 Gap=     0.213 Goal=   None    Shift=    0.000
 Gap=     0.082 Goal=   None    Shift=    0.000
 RMSDP=7.92D-07 MaxDP=2.46D-05 DE=-1.79D-09 OVMax= 3.58D-05

 Cycle  13  Pass 1  IDiag  1:
 E= -231.251852287575     Delta-E=       -0.000000000719 Rises=F Damp=F
 DIIS: error= 4.77D-07 at cycle  13 NSaved=  13.
 NSaved=13 IEnMin=13 EnMin= -231.251852287575     IErMin=13 ErrMin= 4.77D-07
 ErrMax= 4.77D-07  0.00D+00 EMaxC= 1.00D-01 BMatC= 5.48D-11 BMatP= 6.82D-10
 IDIUse=1 WtCom= 1.00D+00 WtEn= 0.00D+00
 Coeff-Com: -0.599D-05 0.178D-04-0.109D-04-0.832D-04-0.379D-03-0.602D-04
 Coeff-Com:  0.889D-03 0.166D-01 0.484D-02-0.101D+00-0.287D-02-0.105D-01
 Coeff-Com:  0.109D+01
 Coeff:     -0.599D-05 0.178D-04-0.109D-04-0.832D-04-0.379D-03-0.602D-04
 Coeff:      0.889D-03 0.166D-01 0.484D-02-0.101D+00-0.287D-02-0.105D-01
 Coeff:      0.109D+01
 Gap=     0.213 Goal=   None    Shift=    0.000
 Gap=     0.082 Goal=   None    Shift=    0.000
 RMSDP=2.33D-07 MaxDP=7.23D-06 DE=-7.19D-10 OVMax= 1.83D-05

 Cycle  14  Pass 1  IDiag  1:
 E= -231.251852287656     Delta-E=       -0.000000000081 Rises=F Damp=F
 DIIS: error= 3.64D-07 at cycle  14 NSaved=  14.
 NSaved=14 IEnMin=14 EnMin= -231.251852287656     IErMin=14 ErrMin= 3.64D-07
 ErrMax= 3.64D-07  0.00D+00 EMaxC= 1.00D-01 BMatC= 2.28D-11 BMatP= 5.48D-11
 IDIUse=1 WtCom= 1.00D+00 WtEn= 0.00D+00
 Coeff-Com: -0.374D-05 0.384D-05 0.260D-04 0.322D-04 0.129D-03-0.168D-03
 Coeff-Com: -0.113D-02-0.118D-02 0.514D-02 0.310D-01 0.249D-01-0.191D+00
 Coeff-Com: -0.402D-01 0.117D+01
 Coeff:     -0.374D-05 0.384D-05 0.260D-04 0.322D-04 0.129D-03-0.168D-03
 Coeff:     -0.113D-02-0.118D-02 0.514D-02 0.310D-01 0.249D-01-0.191D+00
 Coeff:     -0.402D-01 0.117D+01
 Gap=     0.213 Goal=   None    Shift=    0.000
 Gap=     0.082 Goal=   None    Shift=    0.000
 RMSDP=1.26D-07 MaxDP=3.21D-06 DE=-8.08D-11 OVMax= 1.19D-05

 Cycle  15  Pass 1  IDiag  1:
 E= -231.251852287694     Delta-E=       -0.000000000037 Rises=F Damp=F
 DIIS: error= 2.41D-07 at cycle  15 NSaved=  15.
 NSaved=15 IEnMin=15 EnMin= -231.251852287694     IErMin=15 ErrMin= 2.41D-07
 ErrMax= 2.41D-07  0.00D+00 EMaxC= 1.00D-01 BMatC= 1.09D-11 BMatP= 2.28D-11
 IDIUse=1 WtCom= 1.00D+00 WtEn= 0.00D+00
 Coeff-Com: -0.520D-06-0.196D-05 0.180D-04 0.350D-04 0.154D-03-0.900D-04
 Coeff-Com: -0.832D-03-0.413D-02 0.260D-02 0.343D-01 0.319D-01-0.129D+00
 Coeff-Com: -0.236D+00 0.695D+00 0.607D+00
 Coeff:     -0.520D-06-0.196D-05 0.180D-04 0.350D-04 0.154D-03-0.900D-04
 Coeff:     -0.832D-03-0.413D-02 0.260D-02 0.343D-01 0.319D-01-0.129D+00
 Coeff:     -0.236D+00 0.695D+00 0.607D+00
 Gap=     0.213 Goal=   None    Shift=    0.000
 Gap=     0.082 Goal=   None    Shift=    0.000
 RMSDP=5.83D-08 MaxDP=1.82D-06 DE=-3.73D-11 OVMax= 5.92D-06

 Cycle  16  Pass 1  IDiag  1:
 E= -231.251852287702     Delta-E=       -0.000000000008 Rises=F Damp=F
 DIIS: error= 1.87D-07 at cycle  16 NSaved=  16.
 NSaved=16 IEnMin=16 EnMin= -231.251852287702     IErMin=16 ErrMin= 1.87D-07
 ErrMax= 1.87D-07  0.00D+00 EMaxC= 1.00D-01 BMatC= 4.80D-12 BMatP= 1.09D-11
 IDIUse=1 WtCom= 1.00D+00 WtEn= 0.00D+00
 Coeff-Com:  0.231D-05-0.323D-05-0.100D-04-0.721D-05-0.288D-04 0.674D-04
 Coeff-Com:  0.430D-03-0.794D-03-0.126D-02-0.141D-01 0.212D-01 0.414D-01
 Coeff-Com: -0.280D-01-0.505D+00 0.214D+00 0.127D+01
 Coeff:      0.231D-05-0.323D-05-0.100D-04-0.721D-05-0.288D-04 0.674D-04
 Coeff:      0.430D-03-0.794D-03-0.126D-02-0.141D-01 0.212D-01 0.414D-01
 Coeff:     -0.280D-01-0.505D+00 0.214D+00 0.127D+01
 Gap=     0.213 Goal=   None    Shift=    0.000
 Gap=     0.082 Goal=   None    Shift=    0.000
 RMSDP=8.17D-08 MaxDP=1.87D-06 DE=-8.47D-12 OVMax= 8.97D-06

 Cycle  17  Pass 1  IDiag  1:
 E= -231.251852287705     Delta-E=       -0.000000000003 Rises=F Damp=F
 DIIS: error= 9.75D-08 at cycle  17 NSaved=  17.
 NSaved=17 IEnMin=17 EnMin= -231.251852287705     IErMin=17 ErrMin= 9.75D-08
 ErrMax= 9.75D-08  0.00D+00 EMaxC= 1.00D-01 BMatC= 1.22D-12 BMatP= 4.80D-12
 IDIUse=1 WtCom= 1.00D+00 WtEn= 0.00D+00
 Coeff-Com: -0.926D-06 0.226D-05-0.540D-05-0.114D-04-0.513D-04 0.206D-04
 Coeff-Com:  0.223D-03 0.158D-02 0.112D-03-0.132D-01-0.420D-03 0.181D-01
 Coeff-Com:  0.113D+00-0.172D+00-0.277D+00-0.304D+00 0.163D+01
 Coeff:     -0.926D-06 0.226D-05-0.540D-05-0.114D-04-0.513D-04 0.206D-04
 Coeff:      0.223D-03 0.158D-02 0.112D-03-0.132D-01-0.420D-03 0.181D-01
 Coeff:      0.113D+00-0.172D+00-0.277D+00-0.304D+00 0.163D+01
 Gap=     0.213 Goal=   None    Shift=    0.000
 Gap=     0.082 Goal=   None    Shift=    0.000
 RMSDP=6.52D-08 MaxDP=1.42D-06 DE=-3.30D-12 OVMax= 7.32D-06

 Cycle  18  Pass 1  IDiag  1:
 E= -231.251852287714     Delta-E=       -0.000000000009 Rises=F Damp=F
 DIIS: error= 2.53D-08 at cycle  18 NSaved=  18.
 NSaved=18 IEnMin=18 EnMin= -231.251852287714     IErMin=18 ErrMin= 2.53D-08
 ErrMax= 2.53D-08  0.00D+00 EMaxC= 1.00D-01 BMatC= 1.33D-13 BMatP= 1.22D-12
 IDIUse=1 WtCom= 1.00D+00 WtEn= 0.00D+00
 Coeff-Com: -0.264D-06 0.944D-08 0.322D-05 0.716D-05 0.209D-04-0.162D-04
 Coeff-Com: -0.155D-03-0.486D-03 0.448D-03 0.624D-02 0.829D-03-0.177D-01
 Coeff-Com: -0.362D-01 0.151D+00 0.657D-01-0.125D+00-0.567D+00 0.152D+01
 Coeff:     -0.264D-06 0.944D-08 0.322D-05 0.716D-05 0.209D-04-0.162D-04
 Coeff:     -0.155D-03-0.486D-03 0.448D-03 0.624D-02 0.829D-03-0.177D-01
 Coeff:     -0.362D-01 0.151D+00 0.657D-01-0.125D+00-0.567D+00 0.152D+01
 Gap=     0.213 Goal=   None    Shift=    0.000
 Gap=     0.082 Goal=   None    Shift=    0.000
 RMSDP=2.03D-08 MaxDP=4.82D-07 DE=-9.15D-12 OVMax= 2.15D-06

 Cycle  19  Pass 1  IDiag  1:
 E= -231.251852287712     Delta-E=        0.000000000002 Rises=F Damp=F
 DIIS: error= 4.13D-09 at cycle  19 NSaved=  19.
 NSaved=19 IEnMin=18 EnMin= -231.251852287714     IErMin=19 ErrMin= 4.13D-09
 ErrMax= 4.13D-09  0.00D+00 EMaxC= 1.00D-01 BMatC= 5.29D-15 BMatP= 1.33D-13
 IDIUse=1 WtCom= 1.00D+00 WtEn= 0.00D+00
 Large coefficients: NSaved= 19 BigCof=    0.00 CofMax=   10.00 Det=-5.22D-15
 Inversion failed.  Reducing to 18 matrices.
 Large coefficients: NSaved= 18 BigCof=    0.00 CofMax=   10.00 Det=-5.33D-15
 Inversion failed.  Reducing to 17 matrices.
 Large coefficients: NSaved= 17 BigCof=    0.00 CofMax=   10.00 Det=-6.51D-15
 Inversion failed.  Reducing to 16 matrices.
 Large coefficients: NSaved= 16 BigCof=    0.00 CofMax=   10.00 Det=-7.30D-15
 Inversion failed.  Reducing to 15 matrices.
 Coeff-Com:  0.326D-06-0.788D-06 0.533D-05-0.617D-04-0.205D-05-0.434D-04
 Coeff-Com:  0.165D-03 0.679D-03-0.890D-03-0.120D-01 0.912D-02 0.397D-01
 Coeff-Com: -0.340D-01-0.256D+00 0.125D+01
 Coeff:      0.326D-06-0.788D-06 0.533D-05-0.617D-04-0.205D-05-0.434D-04
 Coeff:      0.165D-03 0.679D-03-0.890D-03-0.120D-01 0.912D-02 0.397D-01
 Coeff:     -0.340D-01-0.256D+00 0.125D+01
 Gap=     0.213 Goal=   None    Shift=    0.000
 Gap=     0.082 Goal=   None    Shift=    0.000
 RMSDP=3.78D-09 MaxDP=1.01D-07 DE= 2.33D-12 OVMax= 3.62D-07

 SCF Done:  E(UB3LYP) =  -231.251852288     A.U. after   19 cycles
            NFock= 19  Conv=0.38D-08     -V/T= 2.0066
 <Sx>= 0.0000 <Sy>= 0.0000 <Sz>= 1.0000 <S**2>= 2.0179 S= 1.0059
 <L.S>= 0.000000000000E+00
 KE= 2.297361104486D+02 PE=-9.109286042068D+02 EE= 2.577106046101D+02
 Annihilation of the first spin contaminant:
 S**2 before annihilation     2.0179,   after     2.0001
 Leave Link  502 at Sat Jun 27 03:18:25 2020, MaxMem=   524288000 cpu:             349.1 elap:              54.4
 (Enter /home/ubuntu/g16/l601.exe)
 Copying SCF densities to generalized density rwf, IOpCl= 1 IROHF=0.

 **********************************************************************

            Population analysis using the SCF density.

 **********************************************************************

 Orbital symmetries:
 Alpha Orbitals:
       Occupied  (A) (A) (A) (A) (A) (A) (A) (A) (A) (A) (A) (A)
                 (A) (A) (A) (A) (A) (A) (A) (A) (A)
       Virtual   (A) (A) (A) (A) (A) (A) (A) (A) (A) (A) (A) (A)
                 (A) (A) (A) (A) (A) (A) (A) (A) (A) (A) (A) (A)
                 (A) (A) (A) (A) (A) (A) (A) (A) (A) (A) (A) (A)
                 (A) (A) (A) (A) (A) (A) (A) (A) (A) (A) (A) (A)
                 (A) (A) (A) (A) (A) (A) (A) (A) (A) (A) (A) (A)
                 (A) (A) (A) (A) (A) (A) (A) (A) (A) (A) (A) (A)
                 (A) (A) (A) (A) (A) (A) (A) (A) (A) (A) (A) (A)
                 (A) (A) (A) (A) (A) (A) (A) (A) (A) (A) (A) (A)
                 (A) (A) (A) (A) (A) (A) (A) (A) (A) (A) (A) (A)
                 (A) (A) (A) (A) (A) (A) (A) (A) (A) (A) (A) (A)
                 (A) (A) (A) (A) (A) (A) (A) (A) (A) (A) (A) (A)
                 (A) (A) (A) (A) (A) (A) (A) (A) (A) (A) (A) (A)
                 (A) (A) (A) (A) (A) (A) (A) (A) (A) (A) (A) (A)
                 (A) (A) (A) (A) (A) (A)
 Beta  Orbitals:
       Occupied  (A) (A) (A) (A) (A) (A) (A) (A) (A) (A) (A) (A)
                 (A) (A) (A) (A) (A) (A) (A)
       Virtual   (A) (A) (A) (A) (A) (A) (A) (A) (A) (A) (A) (A)
                 (A) (A) (A) (A) (A) (A) (A) (A) (A) (A) (A) (A)
                 (A) (A) (A) (A) (A) (A) (A) (A) (A) (A) (A) (A)
                 (A) (A) (A) (A) (A) (A) (A) (A) (A) (A) (A) (A)
                 (A) (A) (A) (A) (A) (A) (A) (A) (A) (A) (A) (A)
                 (A) (A) (A) (A) (A) (A) (A) (A) (A) (A) (A) (A)
                 (A) (A) (A) (A) (A) (A) (A) (A) (A) (A) (A) (A)
                 (A) (A) (A) (A) (A) (A) (A) (A) (A) (A) (A) (A)
                 (A) (A) (A) (A) (A) (A) (A) (A) (A) (A) (A) (A)
                 (A) (A) (A) (A) (A) (A) (A) (A) (A) (A) (A) (A)
                 (A) (A) (A) (A) (A) (A) (A) (A) (A) (A) (A) (A)
                 (A) (A) (A) (A) (A) (A) (A) (A) (A) (A) (A) (A)
                 (A) (A) (A) (A) (A) (A) (A) (A) (A) (A) (A) (A)
                 (A) (A) (A) (A) (A) (A) (A) (A)
 The electronic state is 3-A.
     Natural Orbital Coefficients:
                           1         2         3         4         5
     Eigenvalues --     2.00000   2.00000   2.00000   2.00000   2.00000
   1 1   C  1S          0.87125   0.32706  -0.21757  -0.29496   0.01765
   2        2S          0.02789   0.01180  -0.00728  -0.01093  -0.00113
   3        3S         -0.11169  -0.06808   0.02781   0.06207   0.00255
   4        4S         -0.07746  -0.02235   0.03248   0.06440   0.03916
   5        5PX        -0.00284  -0.00168   0.00169   0.00209   0.00552
   6        5PY         0.00135   0.00100   0.00018   0.00182  -0.00056
   7        5PZ        -0.00000  -0.00000   0.00000   0.00000   0.00000
   8        6PX         0.01609   0.03609   0.01456  -0.02215  -0.03964
   9        6PY         0.00637  -0.02340  -0.03363  -0.05769   0.03825
  10        6PZ        -0.00002  -0.00001  -0.00001  -0.00000   0.00000
  11        7PX         0.01405  -0.00469  -0.02389  -0.00778  -0.01626
  12        7PY         0.01198   0.01069   0.01365  -0.01123  -0.00098
  13        7PZ         0.00001   0.00001  -0.00000  -0.00001  -0.00001
  14        8D 0       -0.00054   0.00003   0.00038   0.00061   0.00054
  15        8D+1        0.00000   0.00000  -0.00000   0.00000   0.00000
  16        8D-1        0.00000  -0.00000  -0.00000  -0.00000   0.00000
  17        8D+2        0.00037   0.00050   0.00041   0.00084  -0.00061
  18        8D-2        0.00028   0.00025  -0.00000   0.00004   0.00146
  19        9D 0        0.00714   0.00243  -0.00278  -0.00488  -0.00263
  20        9D+1        0.00002  -0.00000  -0.00000  -0.00001  -0.00000
  21        9D-1        0.00001   0.00000   0.00000  -0.00000  -0.00000
  22        9D+2        0.00072  -0.01085  -0.01234  -0.00614   0.01272
  23        9D-2        0.01075   0.00665   0.00060   0.01761  -0.00744
  24 2   C  1S          0.33120   0.16017   0.49671   0.78405  -0.01020
  25        2S          0.00809   0.00574   0.02047   0.03009  -0.00289
  26        3S         -0.01706  -0.05354  -0.07192  -0.10335   0.02899
  27        4S          0.01631  -0.02105  -0.06284  -0.08645  -0.00470
  28        5PX        -0.00135  -0.00046  -0.00053  -0.00118  -0.00042
  29        5PY        -0.00291  -0.00154   0.00052   0.00094   0.00071
  30        5PZ        -0.00000   0.00000   0.00000   0.00000   0.00000
  31        6PX         0.02609   0.01282   0.00092   0.03322   0.01622
  32        6PY         0.02455   0.00707  -0.02237  -0.05219   0.02344
  33        6PZ         0.00001  -0.00001  -0.00001  -0.00001   0.00000
  34        7PX        -0.00401   0.01201   0.02839   0.01023   0.00271
  35        7PY         0.01346   0.02006   0.01816  -0.01088   0.00378
  36        7PZ        -0.00001  -0.00001  -0.00000   0.00000   0.00000
  37        8D 0        0.00036   0.00013  -0.00053  -0.00081  -0.00012
  38        8D+1        0.00000   0.00000   0.00000   0.00000   0.00000
  39        8D-1        0.00000   0.00000  -0.00000  -0.00000   0.00000
  40        8D+2        0.00112   0.00065  -0.00003  -0.00031  -0.00012
  41        8D-2       -0.00039  -0.00023  -0.00028  -0.00021   0.00043
  42        9D 0        0.00031   0.00074   0.00477   0.00753   0.00018
  43        9D+1       -0.00001   0.00000   0.00001   0.00001   0.00000
  44        9D-1       -0.00000   0.00000   0.00000  -0.00001  -0.00001
  45        9D+2       -0.01730  -0.00045   0.00788  -0.00081  -0.01413
  46        9D-2        0.00433  -0.00484  -0.00190   0.01762   0.00069
  47 3   C  1S         -0.00280   0.00122   0.00047  -0.00141   0.02953
  48        2S         -0.00226   0.00101   0.00003  -0.00063  -0.00090
  49        3S          0.04262  -0.01952  -0.00238   0.02039   0.04226
  50        4S         -0.00693   0.00177  -0.00697   0.03089   0.00828
  51        5PX        -0.00029  -0.00060   0.00039   0.00004   0.00001
  52        5PY        -0.00072   0.00033   0.00002  -0.00025  -0.00024
  53        5PZ         0.00000  -0.00000  -0.00000  -0.00000  -0.00000
  54        6PX         0.01858   0.04364   0.01171   0.00424   0.00002
  55        6PY         0.02901  -0.01421  -0.00648   0.03692   0.02232
  56        6PZ        -0.00003  -0.00000   0.00001  -0.00001  -0.00001
  57        7PX         0.01280   0.03385   0.04236   0.01016  -0.00003
  58        7PY         0.00049  -0.00070  -0.00231   0.01066  -0.00154
  59        7PZ         0.00000  -0.00001  -0.00003  -0.00001   0.00000
  60        8D 0       -0.00021   0.00007  -0.00016   0.00073  -0.00017
  61        8D+1       -0.00000  -0.00000  -0.00000   0.00000   0.00000
  62        8D-1       -0.00000   0.00000   0.00000   0.00000  -0.00000
  63        8D+2       -0.00014   0.00010   0.00021  -0.00109   0.00002
  64        8D-2       -0.00022  -0.00058  -0.00080  -0.00019   0.00000
  65        9D 0        0.00022  -0.00005   0.00029  -0.00129   0.00078
  66        9D+1       -0.00000  -0.00000  -0.00000   0.00000  -0.00000
  67        9D-1       -0.00001   0.00000   0.00000  -0.00000  -0.00000
  68        9D+2       -0.00974   0.00490   0.00279  -0.01539  -0.00736
  69        9D-2        0.00530   0.01222   0.00126   0.00076   0.00002
  70 4   C  1S          0.13761  -0.41287  -0.74634   0.50014  -0.00916
  71        2S          0.00257  -0.01226  -0.03052   0.01888  -0.00289
  72        3S          0.02303   0.05701   0.10675  -0.06110   0.02862
  73        4S          0.02245   0.00976   0.09431  -0.05253  -0.00468
  74        5PX         0.00060  -0.00135  -0.00073   0.00070   0.00043
  75        5PY        -0.00084   0.00317  -0.00103   0.00075   0.00073
  76        5PZ         0.00000  -0.00000   0.00000  -0.00000  -0.00000
  77        6PX        -0.00796   0.03013   0.01258  -0.02890  -0.01616
  78        6PY         0.01022  -0.01902   0.04307  -0.03907   0.02328
  79        6PZ         0.00000  -0.00002  -0.00003   0.00001   0.00000
  80        7PX         0.00931   0.00638   0.03051   0.00283  -0.00271
  81        7PY        -0.00399  -0.02303  -0.01153  -0.01871   0.00384
  82        7PZ        -0.00000   0.00000   0.00001   0.00001  -0.00000
  83        8D 0        0.00011  -0.00029   0.00084  -0.00054  -0.00012
  84        8D+1        0.00000  -0.00000  -0.00000   0.00000   0.00000
  85        8D-1        0.00000  -0.00000   0.00000  -0.00000  -0.00000
  86        8D+2        0.00029  -0.00125   0.00023  -0.00033  -0.00012
  87        8D-2        0.00011  -0.00046  -0.00032   0.00007  -0.00043
  88        9D 0       -0.00004  -0.00133  -0.00739   0.00489   0.00019
  89        9D+1        0.00001  -0.00001  -0.00001   0.00001   0.00001
  90        9D-1        0.00000  -0.00000  -0.00001   0.00001   0.00001
  91        9D+2       -0.01078   0.01296  -0.00813  -0.00390  -0.01409
  92        9D-2       -0.00608   0.00104   0.00506  -0.01720  -0.00058
  93 5   C  1S          0.33606  -0.83563   0.37981  -0.21220   0.01849
  94        2S          0.00972  -0.02740   0.01297  -0.00807  -0.00090
  95        3S         -0.02438   0.12336  -0.05795   0.05120   0.00259
  96        4S         -0.03406   0.06640  -0.06148   0.04794   0.03874
  97        5PX         0.00063  -0.00317   0.00256  -0.00135  -0.00561
  98        5PY         0.00017  -0.00173  -0.00072   0.00146  -0.00041
  99        5PZ         0.00000  -0.00000   0.00000  -0.00000  -0.00000
 100        6PX         0.01407   0.03503   0.00383   0.02875   0.03968
 101        6PY         0.01932   0.01553   0.05472  -0.03735   0.03788
 102        6PZ        -0.00003   0.00003  -0.00001   0.00002  -0.00002
 103        7PX        -0.01108   0.00605  -0.02611  -0.00279   0.01624
 104        7PY         0.00162  -0.01551  -0.00700  -0.01665  -0.00106
 105        7PZ         0.00000   0.00001  -0.00002   0.00001   0.00001
 106        8D 0       -0.00036   0.00033  -0.00063   0.00040   0.00054
 107        8D+1        0.00000  -0.00000   0.00000  -0.00000  -0.00000
 108        8D-1        0.00000   0.00000  -0.00000   0.00000  -0.00000
 109        8D+2       -0.00009  -0.00066  -0.00068   0.00055  -0.00061
 110        8D-2       -0.00001   0.00038  -0.00001  -0.00002  -0.00146
 111        9D 0        0.00288  -0.00650   0.00503  -0.00356  -0.00262
 112        9D+1       -0.00001   0.00001   0.00001   0.00001  -0.00000
 113        9D-1        0.00001  -0.00000   0.00001  -0.00001   0.00002
 114        9D+2        0.00747   0.00746   0.01396   0.00009   0.01264
 115        9D-2       -0.00235   0.01367   0.00684  -0.01525   0.00741
 116 6   C  1S         -0.01612   0.00720  -0.00507   0.02219   1.00022
 117        2S         -0.00233   0.00104  -0.00016   0.00027   0.03074
 118        3S          0.02610  -0.01177  -0.00122   0.01192  -0.14546
 119        4S          0.05888  -0.02514   0.00536  -0.01280  -0.09138
 120        5PX        -0.00016  -0.00043  -0.00076  -0.00019  -0.00006
 121        5PY         0.00060  -0.00027  -0.00003   0.00028   0.00163
 122        5PZ        -0.00000  -0.00000   0.00000  -0.00000   0.00000
 123        6PX         0.03232   0.07678   0.02309   0.00795  -0.00003
 124        6PY        -0.01287   0.00447  -0.00588   0.02471   0.03836
 125        6PZ        -0.00000  -0.00001  -0.00001  -0.00001   0.00004
 126        7PX        -0.00046  -0.00374  -0.02436  -0.00531  -0.00004
 127        7PY        -0.01870   0.00791  -0.00213   0.00610   0.02097
 128        7PZ        -0.00002  -0.00000   0.00001  -0.00000   0.00001
 129        8D 0        0.00058  -0.00024   0.00013  -0.00048  -0.00061
 130        8D+1        0.00000   0.00000  -0.00000   0.00000   0.00000
 131        8D-1        0.00000  -0.00000   0.00000   0.00000   0.00000
 132        8D+2       -0.00094   0.00040  -0.00018   0.00065  -0.00023
 133        8D-2        0.00053   0.00115  -0.00043  -0.00005  -0.00000
 134        9D 0       -0.00347   0.00147  -0.00046   0.00144   0.00890
 135        9D+1       -0.00001  -0.00001  -0.00000  -0.00000   0.00000
 136        9D-1       -0.00001   0.00001   0.00001  -0.00000  -0.00002
 137        9D+2        0.00440  -0.00255  -0.00255   0.01291  -0.00725
 138        9D-2       -0.00957  -0.02287  -0.00853  -0.00275   0.00005
 139 7   H  1S         -0.00458  -0.00178   0.00192   0.00286   0.00250
 140        2S          0.00660   0.00352   0.00386   0.00737   0.01526
 141        3S         -0.00698  -0.00199   0.00515   0.00479   0.00628
 142        4PX         0.00129   0.00037  -0.00039  -0.00070   0.00028
 143        4PY         0.00080   0.00041  -0.00013  -0.00023  -0.00033
 144        4PZ         0.00000   0.00000  -0.00000  -0.00000  -0.00000
 145        5PX        -0.00232  -0.00072   0.00084  -0.00196  -0.00535
 146        5PY        -0.00335  -0.00224  -0.00212  -0.00402  -0.00050
 147        5PZ        -0.00001  -0.00000   0.00000   0.00001  -0.00001
 148 8   H  1S         -0.00193  -0.00023  -0.00031  -0.00187  -0.00197
 149        2S          0.01863   0.00303   0.00616   0.00843   0.00024
 150        3S          0.00520  -0.00139  -0.00718  -0.00394   0.00090
 151        4PX         0.00070  -0.00000   0.00055   0.00137   0.00027
 152        4PY        -0.00070  -0.00027  -0.00034  -0.00065  -0.00010
 153        4PZ         0.00000   0.00000   0.00000   0.00000   0.00000
 154        5PX        -0.00241  -0.00149  -0.00319  -0.00101   0.00172
 155        5PY         0.00535   0.00081  -0.00006   0.00004   0.00086
 156        5PZ        -0.00000  -0.00000  -0.00000  -0.00001  -0.00000
 157 9   H  1S         -0.00113   0.00162   0.00068  -0.00134  -0.00202
 158        2S          0.01080  -0.01654  -0.00786   0.00512   0.00012
 159        3S          0.00401  -0.00245   0.00857  -0.00065   0.00089
 160        4PX        -0.00051   0.00061   0.00099  -0.00101  -0.00027
 161        4PY        -0.00030   0.00074   0.00051  -0.00042  -0.00010
 162        4PZ         0.00000  -0.00000   0.00000   0.00000   0.00000
 163        5PX         0.00079  -0.00293  -0.00319  -0.00044  -0.00174
 164        5PY         0.00302  -0.00448   0.00043  -0.00002   0.00085
 165        5PZ         0.00001  -0.00001  -0.00001   0.00001   0.00001
 166 10  H  1S         -0.00175   0.00452  -0.00320   0.00198   0.00273
 167        2S          0.00200  -0.00743  -0.00593   0.00477   0.01559
 168        3S         -0.00291   0.00604  -0.00713   0.00249   0.00628
 169        4PX        -0.00058   0.00114  -0.00073   0.00052  -0.00027
 170        4PY         0.00024  -0.00086   0.00027  -0.00019  -0.00033
 171        4PZ        -0.00000   0.00000  -0.00000   0.00000  -0.00000
 172        5PX         0.00093  -0.00223   0.00016   0.00203   0.00539
 173        5PY        -0.00075   0.00425   0.00330  -0.00260  -0.00057
 174        5PZ        -0.00000  -0.00000   0.00000   0.00000   0.00000
 175 11  H  1S         -0.00053   0.00023   0.00000  -0.00016  -0.00346
 176        2S          0.01384  -0.00584   0.00193  -0.00606   0.00326
 177        3S          0.00867  -0.00380   0.00033   0.00032  -0.00853
 178        4PX        -0.00017  -0.00038   0.00012   0.00001   0.00000
 179        4PY         0.00017  -0.00008  -0.00003   0.00020   0.00161
 180        4PZ         0.00000  -0.00000  -0.00000   0.00000   0.00000
 181        5PX         0.00147   0.00343   0.00025   0.00019  -0.00000
 182        5PY        -0.00451   0.00184  -0.00091   0.00331  -0.00251
 183        5PZ         0.00000   0.00000  -0.00000   0.00000   0.00000
                           6         7         8         9        10
     Eigenvalues --     2.00000   2.00000   2.00000   2.00000   1.99999
   1 1   C  1S          0.00235  -0.09445  -0.03776  -0.09638  -0.04265
   2        2S         -0.00455   0.20907   0.08363   0.21519   0.09792
   3        3S          0.01941   0.33749   0.06994   0.29222   0.03864
   4        4S         -0.00056  -0.43942  -0.03618  -0.98118   0.20681
   5        5PX         0.00020   0.18193  -0.00246   0.15183   0.00988
   6        5PY         0.00627   0.14479  -0.09146   0.10524  -0.13427
   7        5PZ         0.00000   0.00018   0.00002   0.00021  -0.00001
   8        6PX         0.00049  -0.19907  -0.15921  -0.07170  -0.00004
   9        6PY        -0.03160   0.03009   0.18707  -0.20903   0.13630
  10        6PZ        -0.00000   0.00006   0.00005  -0.00008   0.00003
  11        7PX         0.00266   0.03790   0.03251   0.08243   0.01967
  12        7PY        -0.00390  -0.07385  -0.07263   0.14700  -0.07104
  13        7PZ         0.00000  -0.00020   0.00002  -0.00013  -0.00002
  14        8D 0       -0.00003  -0.00485  -0.00484  -0.00252  -0.00472
  15        8D+1       -0.00000   0.00002  -0.00000   0.00002  -0.00001
  16        8D-1       -0.00000   0.00002  -0.00001   0.00001  -0.00000
  17        8D+2        0.00063   0.00420  -0.00950   0.00647  -0.01149
  18        8D-2        0.00005   0.00422  -0.00636   0.01089  -0.00661
  19        9D 0        0.00102   0.00087   0.00240   0.00553  -0.00444
  20        9D+1        0.00000  -0.00029   0.00008  -0.00024   0.00002
  21        9D-1        0.00000  -0.00015  -0.00003  -0.00010  -0.00005
  22        9D+2       -0.00707  -0.02640   0.07733  -0.07942   0.03901
  23        9D-2        0.01194  -0.13570  -0.00882  -0.07910  -0.05493
  24 2   C  1S          0.01057  -0.00015  -0.12262   0.03355  -0.12051
  25        2S         -0.01863  -0.01095   0.24806  -0.07882   0.25317
  26        3S         -0.00261  -0.08048   0.37367  -0.21591   0.28309
  27        4S          0.02991   0.10434  -0.25560   0.82957  -0.29233
  28        5PX        -0.00357   0.03727   0.13348  -0.05163   0.11274
  29        5PY         0.00398   0.00170  -0.01611   0.09233   0.02867
  30        5PZ        -0.00000  -0.00006   0.00014   0.00002   0.00006
  31        6PX        -0.01374  -0.01186  -0.07242   0.00410  -0.11083
  32        6PY        -0.04546  -0.05639   0.13286  -0.22492   0.14762
  33        6PZ         0.00001  -0.00022   0.00008  -0.00007  -0.00009
  34        7PX        -0.01149  -0.03341  -0.01258  -0.04600  -0.00546
  35        7PY        -0.00387   0.03456   0.01577   0.14763  -0.04517
  36        7PZ        -0.00000   0.00011  -0.00004   0.00010   0.00001
  37        8D 0        0.00098  -0.00305  -0.00595  -0.00143  -0.00547
  38        8D+1        0.00000   0.00000   0.00000  -0.00000   0.00000
  39        8D-1        0.00000   0.00001  -0.00001   0.00001  -0.00000
  40        8D+2       -0.00076  -0.00558  -0.00355  -0.00910  -0.00363
  41        8D-2       -0.00126   0.00785  -0.00518   0.01168  -0.00537
  42        9D 0       -0.00339   0.00125   0.00057  -0.00609   0.00704
  43        9D+1       -0.00000   0.00016  -0.00009   0.00016  -0.00001
  44        9D-1       -0.00001  -0.00006   0.00001  -0.00003   0.00004
  45        9D+2        0.00387   0.01043  -0.05874   0.07279   0.00257
  46        9D-2        0.01500  -0.02176   0.09917  -0.02958   0.01618
  47 3   C  1S          1.00082  -0.00031   0.00210   0.00375   0.03718
  48        2S          0.02625  -0.00034  -0.00177  -0.01844   0.04079
  49        3S         -0.12414  -0.00447  -0.02211  -0.12545  -0.13468
  50        4S         -0.08114  -0.01082  -0.06321  -0.40899   0.15122
  51        5PX        -0.00011  -0.01507   0.06455  -0.01016  -0.00082
  52        5PY        -0.00128   0.00005  -0.00020  -0.00376   0.01302
  53        5PZ         0.00000  -0.00004   0.00003   0.00001  -0.00002
  54        6PX         0.00016   0.03616  -0.15789   0.02406   0.00320
  55        6PY        -0.00705  -0.00108  -0.00440  -0.01973  -0.08121
  56        6PZ        -0.00000   0.00013  -0.00007   0.00007   0.00009
  57        7PX        -0.00005   0.00704   0.07750  -0.01348  -0.00441
  58        7PY        -0.00800  -0.00314  -0.01809  -0.11684   0.04317
  59        7PZ         0.00000  -0.00006   0.00000  -0.00001  -0.00004
  60        8D 0        0.00006   0.00006   0.00048   0.00423  -0.00959
  61        8D+1        0.00000  -0.00001   0.00001   0.00001  -0.00000
  62        8D-1       -0.00000   0.00000  -0.00000   0.00000  -0.00000
  63        8D+2       -0.00033  -0.00021  -0.00126  -0.00933   0.01163
  64        8D-2       -0.00001  -0.00307   0.00782  -0.00103   0.00032
  65        9D 0        0.01149   0.00002   0.00032   0.00360  -0.01357
  66        9D+1        0.00001   0.00002   0.00001   0.00007   0.00003
  67        9D-1       -0.00000   0.00004  -0.00007   0.00002   0.00003
  68        9D+2       -0.02373  -0.00022  -0.00202  -0.01758   0.04255
  69        9D-2        0.00007   0.00690   0.00186  -0.00079  -0.00126
  70 4   C  1S          0.01065  -0.00078   0.12280  -0.00527  -0.12410
  71        2S         -0.01811   0.01214  -0.25026  -0.00012   0.25944
  72        3S         -0.00160   0.07592  -0.41175  -0.09666   0.28436
  73        4S          0.02912  -0.06349   0.49239   0.71231  -0.31322
  74        5PX         0.00345   0.03725   0.13857   0.00455  -0.12498
  75        5PY         0.00396   0.00363   0.04427   0.07867   0.01499
  76        5PZ         0.00000   0.00010  -0.00004  -0.00002  -0.00011
  77        6PX         0.01369  -0.01002  -0.06659   0.01764   0.11301
  78        6PY        -0.04512   0.04728  -0.19073  -0.17622   0.14959
  79        6PZ         0.00001  -0.00009   0.00009   0.00007  -0.00006
  80        7PX         0.01146  -0.03063   0.00315   0.04974   0.00474
  81        7PY        -0.00401  -0.02636   0.03002   0.14762  -0.04182
  82        7PZ        -0.00000   0.00007  -0.00011  -0.00008   0.00009
  83        8D 0        0.00098   0.00284   0.00495  -0.00332  -0.00562
  84        8D+1        0.00000  -0.00000  -0.00000   0.00000   0.00000
  85        8D-1        0.00000   0.00002  -0.00002  -0.00002   0.00000
  86        8D+2       -0.00075   0.00503   0.00033  -0.00992  -0.00313
  87        8D-2        0.00128   0.00726  -0.00846  -0.00988   0.00575
  88        9D 0       -0.00338  -0.00150  -0.00221  -0.00558   0.00689
  89        9D+1        0.00001  -0.00008   0.00012   0.00005  -0.00012
  90        9D-1        0.00001  -0.00006   0.00009   0.00002  -0.00009
  91        9D+2        0.00363  -0.00713   0.07899   0.05021  -0.00285
  92        9D-2       -0.01524  -0.02127   0.10239  -0.00260  -0.02259
  93 5   C  1S          0.00217   0.08779   0.00312  -0.10696  -0.04192
  94        2S         -0.00478  -0.19482  -0.00662   0.23929   0.09670
  95        3S          0.01901  -0.31971   0.02898   0.31375   0.03066
  96        4S          0.00026   0.38499  -0.26939  -0.96600   0.20881
  97        5PX         0.00001   0.17213  -0.05167  -0.15393  -0.01091
  98        5PY         0.00579  -0.14197   0.11647   0.08351  -0.12511
  99        5PZ        -0.00000   0.00034  -0.00027  -0.00018   0.00005
 100        6PX        -0.00054  -0.19302  -0.12736   0.12772   0.00413
 101        6PY        -0.03122  -0.03740  -0.23636  -0.13861   0.14401
 102        6PZ         0.00000   0.00012  -0.00008   0.00023   0.00006
 103        7PX        -0.00267   0.03278   0.00429  -0.08928  -0.01869
 104        7PY        -0.00400   0.08036   0.11163   0.11345  -0.07347
 105        7PZ         0.00001  -0.00007   0.00004  -0.00011  -0.00002
 106        8D 0       -0.00003   0.00461   0.00358  -0.00411  -0.00485
 107        8D+1       -0.00000  -0.00001   0.00001   0.00001  -0.00001
 108        8D-1        0.00000   0.00001   0.00000  -0.00001  -0.00001
 109        8D+2        0.00060  -0.00409   0.01059   0.00354  -0.01134
 110        8D-2       -0.00005   0.00379  -0.00933  -0.00859   0.00741
 111        9D 0        0.00102  -0.00055  -0.00069   0.00603  -0.00439
 112        9D+1       -0.00000   0.00022  -0.00019  -0.00009   0.00009
 113        9D-1       -0.00001  -0.00011  -0.00000   0.00006   0.00004
 114        9D+2       -0.00691   0.02254  -0.09669  -0.05283   0.03898
 115        9D-2       -0.01207  -0.13044   0.02034   0.08505   0.05366
 116 6   C  1S         -0.02984  -0.00027  -0.00431  -0.02692   0.00204
 117        2S         -0.00239   0.00073   0.00455   0.02896   0.00242
 118        3S          0.04250  -0.00457  -0.01678  -0.07160  -0.21880
 119        4S          0.00963   0.02263   0.12343   0.76365   0.00804
 120        5PX         0.00013   0.07587   0.01670  -0.00466  -0.00333
 121        5PY         0.00066  -0.00021  -0.00275  -0.01472  -0.01279
 122        5PZ        -0.00000   0.00012  -0.00010  -0.00004   0.00002
 123        6PX        -0.00002  -0.37249  -0.18101   0.03920  -0.00028
 124        6PY        -0.00543   0.00291   0.01207   0.06953   0.01325
 125        6PZ        -0.00001  -0.00016   0.00014  -0.00003   0.00004
 126        7PX         0.00004   0.19109   0.07804  -0.01799  -0.00126
 127        7PY         0.00042  -0.00559  -0.02986  -0.19061   0.04723
 128        7PZ        -0.00001   0.00012  -0.00004   0.00000   0.00002
 129        8D 0       -0.00001  -0.00024  -0.00134  -0.00820  -0.00120
 130        8D+1       -0.00000  -0.00002   0.00001   0.00001  -0.00000
 131        8D-1        0.00000  -0.00001   0.00000  -0.00000   0.00000
 132        8D+2        0.00034   0.00056   0.00330   0.02145  -0.00623
 133        8D-2        0.00000  -0.00020  -0.00662   0.00088  -0.00013
 134        9D 0       -0.00113  -0.00019  -0.00092  -0.00523  -0.00277
 135        9D+1       -0.00000   0.00012   0.00003   0.00001   0.00006
 136        9D-1       -0.00000   0.00022  -0.00005   0.00008   0.00004
 137        9D+2        0.00686  -0.00058  -0.00453  -0.02231  -0.05598
 138        9D-2       -0.00002   0.09687   0.07110  -0.01392  -0.00045
 139 7   H  1S          0.00090   0.30236  -0.00771   0.26962  -0.00587
 140        2S         -0.00007   0.43410  -0.07435   0.43003  -0.07982
 141        3S          0.00200   0.00497  -0.00687  -0.03200   0.00131
 142        4PX         0.00002  -0.01623  -0.00194  -0.01537  -0.00177
 143        4PY         0.00013  -0.00948  -0.00304  -0.00829  -0.00380
 144        4PZ         0.00000  -0.00003  -0.00000  -0.00002  -0.00000
 145        5PX         0.00083  -0.07599   0.00984  -0.07503   0.01009
 146        5PY        -0.00177  -0.04153   0.02592  -0.05110   0.02946
 147        5PZ        -0.00000  -0.00007   0.00000  -0.00007   0.00004
 148 8   H  1S         -0.01465   0.00580   0.23686  -0.12900   0.19998
 149        2S          0.00360  -0.06635   0.32493  -0.27722   0.19086
 150        3S          0.00076   0.00723   0.00712   0.02130   0.00432
 151        4PX         0.00165  -0.00069  -0.01362   0.00633  -0.01403
 152        4PY        -0.00048   0.00096   0.01105  -0.00283   0.01033
 153        4PZ         0.00000  -0.00001  -0.00001   0.00000  -0.00001
 154        5PX        -0.00224   0.01464  -0.05391   0.04271  -0.03480
 155        5PY         0.00006  -0.01410   0.03239  -0.04458   0.01209
 156        5PZ        -0.00000  -0.00007  -0.00003  -0.00002  -0.00001
 157 9   H  1S         -0.01427  -0.00813  -0.25730  -0.04698   0.21819
 158        2S          0.00423   0.05639  -0.38818  -0.16324   0.21626
 159        3S          0.00074  -0.00584   0.00017   0.02303   0.00541
 160        4PX        -0.00163  -0.00074  -0.01438  -0.00170   0.01491
 161        4PY        -0.00046  -0.00087  -0.01093   0.00077   0.01075
 162        4PZ        -0.00000   0.00000  -0.00001  -0.00000   0.00001
 163        5PX         0.00234   0.01324  -0.06346  -0.02441   0.03884
 164        5PY         0.00012   0.01200  -0.04404  -0.03241   0.01536
 165        5PZ         0.00001  -0.00004  -0.00002  -0.00001  -0.00003
 166 10  H  1S          0.00044  -0.28676   0.09440   0.27081  -0.00338
 167        2S         -0.00083  -0.41093   0.20607   0.40957  -0.08122
 168        3S          0.00200  -0.00689  -0.00342  -0.03200   0.00160
 169        4PX        -0.00004  -0.01527   0.00319   0.01604   0.00196
 170        4PY         0.00014   0.00896   0.00005  -0.00932  -0.00375
 171        4PZ        -0.00000  -0.00002  -0.00000   0.00002   0.00000
 172        5PX        -0.00095  -0.07175   0.03301   0.07218  -0.01090
 173        5PY        -0.00165   0.03950  -0.03994  -0.04330   0.02942
 174        5PZ        -0.00000  -0.00007   0.00000   0.00012  -0.00001
 175 11  H  1S         -0.00022  -0.00021  -0.00250  -0.01468  -0.00055
 176        2S          0.00724  -0.00524  -0.03050  -0.18297  -0.04293
 177        3S         -0.00028   0.00132   0.00685   0.04267  -0.00050
 178        4PX         0.00000   0.00128   0.00157  -0.00028  -0.00008
 179        4PY         0.00010  -0.00006  -0.00031  -0.00198  -0.00021
 180        4PZ         0.00000  -0.00000  -0.00000  -0.00000   0.00000
 181        5PX        -0.00002  -0.02775  -0.00789   0.00213   0.00035
 182        5PY        -0.00180   0.00144   0.00825   0.05084   0.00148
 183        5PZ         0.00000  -0.00011   0.00002   0.00004   0.00000
                          11        12        13        14        15
     Eigenvalues --     1.99999   1.99998   1.99996   1.99995   1.99981
   1 1   C  1S          0.06357   0.06210   0.04444  -0.00000  -0.00613
   2        2S         -0.13993  -0.12589  -0.09040  -0.00001   0.01597
   3        3S         -0.33755  -0.33737  -0.21593   0.00019   0.00704
   4        4S          0.06289  -0.01980   0.31951  -0.00117  -0.10068
   5        5PX         0.01606   0.30285   0.20142  -0.00047   0.03427
   6        5PY         0.25036  -0.11097  -0.02091   0.00059  -0.22588
   7        5PZ         0.00004   0.00023   0.00087   0.30841   0.00065
   8        6PX         0.11319   0.11095   0.08456  -0.00037  -0.01936
   9        6PY        -0.01812  -0.03217   0.00173  -0.00031   0.03591
  10        6PZ        -0.00008   0.00013   0.00037   0.17774   0.00046
  11        7PX        -0.04522  -0.02204  -0.08329   0.00007   0.03897
  12        7PY         0.03008   0.00762  -0.01492   0.00022   0.00085
  13        7PZ         0.00002  -0.00006   0.00008   0.01075   0.00004
  14        8D 0        0.00244   0.00214   0.00184   0.00000  -0.00016
  15        8D+1        0.00001   0.00002  -0.00001  -0.00207  -0.00001
  16        8D-1        0.00000  -0.00000  -0.00003  -0.01624  -0.00003
  17        8D+2        0.01022   0.00129  -0.01940   0.00009  -0.01750
  18        8D-2       -0.00785   0.01722  -0.00337   0.00000   0.01376
  19        9D 0       -0.00155  -0.00552   0.00208  -0.00001   0.00684
  20        9D+1        0.00004  -0.00010   0.00006  -0.00295   0.00003
  21        9D-1        0.00004  -0.00007   0.00000  -0.00252  -0.00005
  22        9D+2       -0.07728   0.00597   0.03426  -0.00033   0.08178
  23        9D-2        0.05094  -0.03459  -0.01915   0.00004   0.00234
  24 2   C  1S          0.03353  -0.00583  -0.00982   0.00013  -0.03309
  25        2S         -0.06594   0.01559   0.02393  -0.00028   0.06789
  26        3S         -0.27551   0.03330   0.09791  -0.00099   0.24105
  27        4S         -0.15801  -0.05324  -0.23533   0.00068   0.15394
  28        5PX         0.13115   0.03122   0.04437   0.00022  -0.22849
  29        5PY        -0.29857   0.01150  -0.01569  -0.00058   0.21752
  30        5PZ         0.00002   0.00013   0.00079   0.31084   0.00063
  31        6PX         0.02880   0.03117  -0.04160   0.00005   0.06243
  32        6PY        -0.07240   0.03494   0.08519  -0.00062   0.08885
  33        6PZ         0.00005  -0.00003   0.00048   0.18283   0.00040
  34        7PX         0.01671   0.02210   0.04367  -0.00007  -0.00602
  35        7PY         0.05615   0.03675  -0.00972   0.00023  -0.01055
  36        7PZ        -0.00005   0.00005  -0.00001   0.00969   0.00005
  37        8D 0        0.00240   0.00188   0.00238   0.00000  -0.00238
  38        8D+1        0.00001  -0.00000  -0.00001  -0.00280  -0.00002
  39        8D-1       -0.00001   0.00001   0.00005   0.01666   0.00004
  40        8D+2        0.01408   0.00147   0.00373   0.00002  -0.00036
  41        8D-2       -0.00181   0.01500   0.00758  -0.00004   0.00951
  42        9D 0       -0.00415   0.00634   0.00368   0.00001  -0.00285
  43        9D+1       -0.00008   0.00009  -0.00000  -0.00443   0.00002
  44        9D-1        0.00001  -0.00003   0.00004   0.00340  -0.00005
  45        9D+2       -0.06630  -0.01885  -0.01525  -0.00000  -0.00763
  46        9D-2        0.05808  -0.00671  -0.00362   0.00013  -0.03205
  47 3   C  1S          0.00070   0.00009   0.00053   0.00004  -0.03982
  48        2S          0.00089  -0.00011   0.00500  -0.00009   0.07663
  49        3S         -0.00343   0.00023   0.02042   0.00013   0.13898
  50        4S          0.00089  -0.00164   0.19987  -0.00077  -0.03228
  51        5PX         0.01109   0.00708   0.00007   0.00002   0.06698
  52        5PY         0.00009  -0.00002  -0.00978  -0.00014   0.15846
  53        5PZ        -0.00001  -0.00002   0.00002  -0.00105  -0.00013
  54        6PX        -0.00557   0.05744  -0.00032  -0.00026   0.04654
  55        6PY        -0.00179   0.00030  -0.00741   0.00023   0.07976
  56        6PZ        -0.00012   0.00002  -0.00001  -0.00064  -0.00008
  57        7PX         0.10872   0.07067   0.00081   0.00025  -0.03681
  58        7PY         0.00012  -0.00038   0.01900  -0.00004  -0.01661
  59        7PZ        -0.00002  -0.00006   0.00001  -0.00002   0.00001
  60        8D 0       -0.00019   0.00002   0.00142  -0.00002  -0.00397
  61        8D+1        0.00000   0.00001   0.00007   0.02887   0.00006
  62        8D-1        0.00000   0.00000   0.00000  -0.00007  -0.00001
  63        8D+2        0.00019  -0.00005   0.00509   0.00004  -0.01862
  64        8D-2       -0.02071   0.00073   0.00003   0.00000   0.00397
  65        9D 0       -0.00029   0.00003   0.00107  -0.00002   0.00154
  66        9D+1       -0.00003   0.00003   0.00002   0.00047  -0.00004
  67        9D-1       -0.00008   0.00002  -0.00001  -0.00003  -0.00001
  68        9D+2        0.00095  -0.00020   0.00854  -0.00006  -0.02485
  69        9D-2        0.04859   0.00963  -0.00015  -0.00007   0.00582
  70 4   C  1S         -0.03861   0.00644  -0.00957   0.00008  -0.01877
  71        2S          0.07662  -0.01697   0.02331  -0.00017   0.03806
  72        3S          0.28521  -0.03528   0.09636  -0.00055   0.19948
  73        4S          0.15348   0.05789  -0.23491   0.00039   0.12272
  74        5PX         0.12652   0.03201  -0.04450  -0.00030   0.14587
  75        5PY         0.29882  -0.01155  -0.01648  -0.00071   0.25934
  76        5PZ        -0.00006  -0.00002  -0.00071  -0.31116  -0.00079
  77        6PX         0.03378   0.02991   0.04187  -0.00025  -0.03461
  78        6PY         0.07610  -0.03675   0.08519   0.00006   0.06617
  79        6PZ        -0.00004  -0.00012  -0.00034  -0.18300  -0.00055
  80        7PX         0.01733   0.02244  -0.04294   0.00037  -0.02773
  81        7PY        -0.05638  -0.03631  -0.01066  -0.00021   0.04417
  82        7PZ        -0.00002   0.00004  -0.00003  -0.00976  -0.00005
  83        8D 0       -0.00267  -0.00188   0.00236   0.00001  -0.00202
  84        8D+1       -0.00001  -0.00001  -0.00000  -0.00294  -0.00002
  85        8D-1       -0.00002   0.00001  -0.00003  -0.01652  -0.00004
  86        8D+2       -0.01432  -0.00140   0.00370   0.00002  -0.00111
  87        8D-2       -0.00161   0.01502  -0.00749   0.00005  -0.00404
  88        9D 0        0.00443  -0.00638   0.00358   0.00003  -0.00463
  89        9D+1        0.00004  -0.00002   0.00002  -0.00441   0.00000
  90        9D-1        0.00004  -0.00006   0.00001  -0.00335   0.00001
  91        9D+2        0.06715   0.01889  -0.01543  -0.00025   0.01897
  92        9D-2        0.05677  -0.00691   0.00391  -0.00007   0.01824
  93 5   C  1S         -0.06648  -0.06253   0.04403   0.00001  -0.00880
  94        2S          0.14677   0.12671  -0.08955  -0.00002   0.02325
  95        3S          0.34174   0.33924  -0.21389   0.00002   0.04397
  96        4S         -0.06491   0.01430   0.31845  -0.00099  -0.08914
  97        5PX         0.01247   0.30448  -0.19948   0.00055  -0.02825
  98        5PY        -0.25386   0.11110  -0.01840   0.00036  -0.24376
  99        5PZ         0.00011   0.00022  -0.00064  -0.30672  -0.00053
 100        6PX         0.11468   0.11257  -0.08390   0.00071  -0.01490
 101        6PY         0.02155   0.03104   0.00295   0.00048  -0.00386
 102        6PZ         0.00010   0.00008  -0.00053  -0.17692  -0.00042
 103        7PX        -0.04700  -0.02293   0.08243  -0.00039  -0.00705
 104        7PY        -0.03157  -0.00692  -0.01628  -0.00030   0.05101
 105        7PZ        -0.00000  -0.00006   0.00006  -0.01068  -0.00007
 106        8D 0       -0.00269  -0.00215   0.00183  -0.00002   0.00041
 107        8D+1       -0.00000   0.00001   0.00001  -0.00185  -0.00000
 108        8D-1       -0.00001   0.00002   0.00004   0.01634   0.00004
 109        8D+2       -0.01068  -0.00096  -0.01932   0.00008  -0.01763
 110        8D-2       -0.00754   0.01716   0.00362  -0.00001  -0.00896
 111        9D 0        0.00136   0.00549   0.00218  -0.00004   0.00961
 112        9D+1        0.00003   0.00005  -0.00010  -0.00293   0.00004
 113        9D-1        0.00008  -0.00014   0.00010   0.00255   0.00002
 114        9D+2        0.07836  -0.00645   0.03410  -0.00006   0.06994
 115        9D-2        0.05374  -0.03477   0.01896   0.00010  -0.00806
 116 6   C  1S         -0.00025  -0.00016   0.01579  -0.00001   0.05804
 117        2S          0.00043   0.00018  -0.04677   0.00007  -0.13936
 118        3S         -0.00456   0.00091  -0.20619   0.00057  -0.32293
 119        4S          0.00424   0.00304  -0.50989   0.00178   0.06282
 120        5PX         0.06744  -0.46142  -0.00135   0.00015  -0.00425
 121        5PY        -0.00000  -0.00104   0.45691  -0.00146   0.11147
 122        5PZ        -0.00001   0.00017   0.00048   0.00187   0.00023
 123        6PX         0.27769  -0.05310   0.00021   0.00040  -0.02466
 124        6PY         0.00028   0.00019  -0.01334   0.00010   0.09754
 125        6PZ        -0.00006   0.00006   0.00016   0.00106   0.00009
 126        7PX        -0.04952  -0.04238  -0.00090  -0.00028   0.03132
 127        7PY        -0.00005  -0.00046   0.03157  -0.00003  -0.03095
 128        7PZ         0.00001   0.00004  -0.00005   0.00003  -0.00003
 129        8D 0       -0.00006  -0.00003   0.00295   0.00000  -0.00055
 130        8D+1       -0.00000   0.00002   0.00006   0.02710   0.00005
 131        8D-1       -0.00001  -0.00001   0.00001  -0.00010   0.00001
 132        8D+2        0.00008   0.00019  -0.01619   0.00007  -0.01963
 133        8D-2        0.01507   0.02749   0.00012  -0.00001   0.00090
 134        9D 0       -0.00004  -0.00005  -0.00039   0.00003  -0.01427
 135        9D+1        0.00001  -0.00009   0.00004   0.00495   0.00003
 136        9D-1        0.00001   0.00008  -0.00022  -0.00005  -0.00006
 137        9D+2       -0.00137  -0.00049   0.12713  -0.00048   0.02518
 138        9D-2       -0.07645  -0.09835  -0.00081  -0.00006   0.00695
 139 7   H  1S          0.03033   0.11432   0.05620   0.00028  -0.05271
 140        2S         -0.00802   0.17666  -0.03242   0.00071  -0.08450
 141        3S          0.00966   0.01932   0.02399   0.00002  -0.02053
 142        4PX        -0.00035   0.00260   0.00016  -0.00003   0.00449
 143        4PY         0.00482  -0.00448  -0.00344   0.00000  -0.00358
 144        4PZ        -0.00000   0.00000   0.00002   0.01079   0.00003
 145        5PX         0.01722  -0.04699   0.00890  -0.00011   0.00607
 146        5PY        -0.02026  -0.00811   0.01687  -0.00017   0.02537
 147        5PZ        -0.00000   0.00001  -0.00000   0.00604   0.00004
 148 8   H  1S          0.18351   0.00011   0.03025   0.00041  -0.21007
 149        2S          0.25497  -0.05335   0.06036   0.00029  -0.24288
 150        3S          0.01799  -0.00888  -0.00192   0.00005  -0.01642
 151        4PX        -0.00679  -0.00213  -0.00243  -0.00002   0.00723
 152        4PY         0.00026   0.00130   0.00181  -0.00000  -0.00286
 153        4PZ        -0.00001   0.00000   0.00003   0.01098   0.00003
 154        5PX        -0.03619   0.01695  -0.00989  -0.00003   0.04449
 155        5PY         0.04509  -0.01077   0.00692   0.00004  -0.02903
 156        5PZ        -0.00001  -0.00004  -0.00002   0.00586   0.00002
 157 9   H  1S         -0.17448  -0.00131   0.03057   0.00060  -0.18164
 158        2S         -0.24793   0.05161   0.06129   0.00056  -0.18534
 159        3S         -0.01745   0.00891  -0.00183   0.00007  -0.01422
 160        4PX        -0.00616  -0.00222   0.00243   0.00003  -0.00811
 161        4PY         0.00022  -0.00136   0.00179   0.00000  -0.00153
 162        4PZ        -0.00001  -0.00001  -0.00002  -0.01100  -0.00004
 163        5PX        -0.03505   0.01665   0.01012   0.00004  -0.02581
 164        5PY        -0.04472   0.01051   0.00718   0.00010  -0.02844
 165        5PZ        -0.00001  -0.00002   0.00001  -0.00585  -0.00004
 166 10  H  1S         -0.02670  -0.11403   0.05597   0.00008  -0.06876
 167        2S          0.01023  -0.17497  -0.03311   0.00051  -0.12239
 168        3S         -0.00987  -0.01961   0.02384   0.00000  -0.02279
 169        4PX        -0.00006   0.00265  -0.00012   0.00002  -0.00450
 170        4PY        -0.00509   0.00450  -0.00340   0.00001  -0.00359
 171        4PZ         0.00000   0.00000  -0.00002  -0.01072  -0.00002
 172        5PX         0.01783  -0.04660  -0.00919   0.00012  -0.01562
 173        5PY         0.02078   0.00793   0.01687  -0.00010   0.03127
 174        5PZ        -0.00001   0.00000  -0.00010  -0.00603  -0.00004
 175 11  H  1S          0.00022  -0.00128   0.34050  -0.00117   0.05151
 176        2S         -0.00181  -0.00180   0.48397  -0.00189   0.14338
 177        3S          0.00027   0.00003   0.01732  -0.00012   0.02050
 178        4PX         0.00100  -0.01007  -0.00006  -0.00000  -0.00021
 179        4PY        -0.00005   0.00006  -0.01314   0.00005   0.00401
 180        4PZ         0.00000   0.00000  -0.00001   0.00006   0.00001
 181        5PX         0.00356   0.03815   0.00007  -0.00001  -0.00170
 182        5PY         0.00033   0.00034  -0.10153   0.00043  -0.04411
 183        5PZ        -0.00000  -0.00005  -0.00006   0.00003   0.00001
                          16        17        18        19        20
     Eigenvalues --     1.99981   1.99974   1.99922   1.99259   1.00000
   1 1   C  1S          0.00893  -0.02453  -0.01597   0.00001  -0.00055
   2        2S         -0.02514   0.04009   0.03552  -0.00000   0.00143
   3        3S         -0.12511  -0.03802   0.15402  -0.00018   0.00430
   4        4S         -0.03001   0.47929   0.16477   0.00247  -0.00273
   5        5PX         0.01884  -0.16139  -0.03626  -0.00032  -0.00054
   6        5PY         0.09298   0.01086  -0.14092  -0.00008  -0.00321
   7        5PZ        -0.00005   0.00033   0.00008   0.23333   0.15501
   8        6PX        -0.12544   0.17830   0.06249   0.00015  -0.00018
   9        6PY         0.14072  -0.14910  -0.07291   0.00020  -0.00246
  10        6PZ         0.00004   0.00018   0.00005   0.11037   0.07835
  11        7PX         0.11100  -0.10668   0.00414  -0.00044   0.00030
  12        7PY        -0.18367   0.02082  -0.02406  -0.00037   0.00021
  13        7PZ        -0.00018   0.00009   0.00010   0.00044   0.00853
  14        8D 0       -0.00212  -0.00633   0.00021   0.00001   0.00011
  15        8D+1        0.00001  -0.00003  -0.00002  -0.01285  -0.01639
  16        8D-1        0.00002  -0.00002  -0.00001  -0.00758   0.01778
  17        8D+2        0.00260   0.00152  -0.00467   0.00001  -0.00002
  18        8D-2        0.01496  -0.01501  -0.01222   0.00001  -0.00020
  19        9D 0       -0.01079  -0.00225   0.00935   0.00001   0.00014
  20        9D+1       -0.00015   0.00007   0.00014  -0.00573   0.00418
  21        9D-1       -0.00008   0.00011   0.00004  -0.00269   0.00380
  22        9D+2        0.03287  -0.04410   0.00618  -0.00005   0.00036
  23        9D-2       -0.01994   0.07468   0.02060  -0.00004  -0.00024
  24 2   C  1S         -0.04778  -0.00463   0.02428  -0.00000   0.00063
  25        2S          0.09983   0.00920  -0.04145  -0.00001  -0.00138
  26        3S          0.12171  -0.11704   0.05667   0.00007  -0.00256
  27        4S          0.09078  -0.19633  -0.15874  -0.00140   0.00078
  28        5PX        -0.26836  -0.05530   0.18156  -0.00003   0.00216
[...]
    A3        2.08761  -0.00007   0.00000  -0.00082  -0.00082   2.08679
    A4        2.01745   0.00005   0.00000   0.00008   0.00008   2.01754
    A5        2.14374  -0.00004   0.00000  -0.00029  -0.00029   2.14345
    A6        2.12199  -0.00000   0.00000   0.00021   0.00021   2.12220
    A7        2.23072  -0.00009   0.00000  -0.00039  -0.00039   2.23033
    A8        2.01701   0.00007   0.00000   0.00053   0.00053   2.01754
    A9        2.12238  -0.00001   0.00000  -0.00018  -0.00018   2.12220
   A10        2.14379  -0.00006   0.00000  -0.00035  -0.00035   2.14345
   A11        2.08288  -0.00003   0.00000  -0.00035  -0.00035   2.08254
   A12        2.11305   0.00011   0.00000   0.00080   0.00080   2.11385
   A13        2.08725  -0.00008   0.00000  -0.00045  -0.00045   2.08680
   A14        2.13574   0.00003   0.00000   0.00015   0.00015   2.13589
   A15        2.07402  -0.00002   0.00000  -0.00038  -0.00038   2.07365
   A16        2.07342  -0.00001   0.00000   0.00023   0.00023   2.07365
    D1       -0.00011   0.00000   0.00000   0.00011   0.00011  -0.00000
    D2       -3.14062  -0.00002   0.00000  -0.00098  -0.00098   3.14159
    D3        3.13961   0.00004   0.00000   0.00198   0.00198  -3.14159
    D4       -0.00090   0.00001   0.00000   0.00090   0.00090  -0.00000
    D5       -0.00069   0.00001   0.00000   0.00069   0.00069   0.00001
    D6        3.14061   0.00001   0.00000   0.00098   0.00098  -3.14159
    D7       -3.14043  -0.00003   0.00000  -0.00116  -0.00116  -3.14159
    D8        0.00087  -0.00003   0.00000  -0.00087  -0.00087   0.00000
    D9        0.00032  -0.00000   0.00000  -0.00032  -0.00032   0.00000
   D10        3.14084   0.00002   0.00000   0.00075   0.00075  -3.14159
   D11        0.00029  -0.00001   0.00000  -0.00029  -0.00029  -0.00000
   D12        3.14047   0.00003   0.00000   0.00113   0.00113  -3.14159
   D13       -0.00106   0.00002   0.00000   0.00107   0.00107   0.00000
   D14        3.14012   0.00003   0.00000   0.00148   0.00148  -3.14159
   D15       -3.14122  -0.00002   0.00000  -0.00037  -0.00037  -3.14159
   D16       -0.00004  -0.00001   0.00000   0.00004   0.00004   0.00000
   D17        0.00132  -0.00002   0.00000  -0.00133  -0.00133  -0.00001
   D18       -3.13998  -0.00002   0.00000  -0.00162  -0.00162   3.14159
   D19       -3.13986  -0.00003   0.00000  -0.00174  -0.00173   3.14159
   D20        0.00202  -0.00003   0.00000  -0.00203  -0.00203  -0.00001
         Item               Value     Threshold  Converged?
 Maximum Force            0.000214     0.000450     YES
 RMS     Force            0.000062     0.000300     YES
 Maximum Displacement     0.002363     0.001800     NO 
 RMS     Displacement     0.000690     0.001200     YES
 Predicted change in Energy=-6.952354D-07
                           ----------------------------
                           ! Non-Optimized Parameters !
                           ! (Angstroms and Degrees)  !
 --------------------------                            --------------------------
 ! Name  Definition              Value          Derivative Info.                !
 --------------------------------------------------------------------------------
 ! R1    R(1,2)                  1.3794         -DE/DX =    0.0                 !
 ! R2    R(1,6)                  1.435          -DE/DX =    0.0001              !
 ! R3    R(1,7)                  1.0906         -DE/DX =    0.0                 !
 ! R4    R(2,3)                  1.4139         -DE/DX =    0.0                 !
 ! R5    R(2,8)                  1.0905         -DE/DX =    0.0                 !
 ! R6    R(3,4)                  1.4139         -DE/DX =    0.0001              !
 ! R7    R(4,5)                  1.3794         -DE/DX =    0.0                 !
 ! R8    R(4,9)                  1.0905         -DE/DX =    0.0                 !
 ! R9    R(5,6)                  1.435          -DE/DX =   -0.0001              !
 ! R10   R(5,10)                 1.0906         -DE/DX =   -0.0001              !
 ! R11   R(6,11)                 1.0919         -DE/DX =   -0.0002              !
 ! A1    A(2,1,6)              119.3206         -DE/DX =    0.0                 !
 ! A2    A(2,1,7)              121.1149         -DE/DX =    0.0001              !
 ! A3    A(6,1,7)              119.5645         -DE/DX =   -0.0001              !
 ! A4    A(1,2,3)              115.5964         -DE/DX =    0.0                 !
 ! A5    A(1,2,8)              122.8104         -DE/DX =    0.0                 !
 ! A6    A(3,2,8)              121.5932         -DE/DX =    0.0                 !
 ! A7    A(2,3,4)              127.7884         -DE/DX =   -0.0001              !
 ! A8    A(3,4,5)              115.5965         -DE/DX =    0.0001              !
 ! A9    A(3,4,9)              121.5931         -DE/DX =    0.0                 !
 ! A10   A(5,4,9)              122.8104         -DE/DX =   -0.0001              !
 ! A11   A(4,5,6)              119.3205         -DE/DX =    0.0                 !
 ! A12   A(4,5,10)             121.1149         -DE/DX =    0.0001              !
 ! A13   A(6,5,10)             119.5646         -DE/DX =   -0.0001              !
 ! A14   A(1,6,5)              122.3775         -DE/DX =    0.0                 !
 ! A15   A(1,6,11)             118.8112         -DE/DX =    0.0                 !
 ! A16   A(5,6,11)             118.8113         -DE/DX =    0.0                 !
 ! D1    D(6,1,2,3)             -0.0001         -DE/DX =    0.0                 !
 ! D2    D(6,1,2,8)            179.9998         -DE/DX =    0.0                 !
 ! D3    D(7,1,2,3)           -180.0            -DE/DX =    0.0                 !
 ! D4    D(7,1,2,8)              0.0            -DE/DX =    0.0                 !
 ! D5    D(2,1,6,5)              0.0003         -DE/DX =    0.0                 !
 ! D6    D(2,1,6,11)          -179.9996         -DE/DX =    0.0                 !
 ! D7    D(7,1,6,5)           -179.9998         -DE/DX =    0.0                 !
 ! D8    D(7,1,6,11)             0.0002         -DE/DX =    0.0                 !
 ! D9    D(1,2,3,4)              0.0            -DE/DX =    0.0                 !
 ! D10   D(8,2,3,4)           -180.0            -DE/DX =    0.0                 !
 ! D11   D(2,3,4,5)              0.0            -DE/DX =    0.0                 !
 ! D12   D(2,3,4,9)           -179.9999         -DE/DX =    0.0                 !
 ! D13   D(3,4,5,6)              0.0002         -DE/DX =    0.0                 !
 ! D14   D(3,4,5,10)          -179.9998         -DE/DX =    0.0                 !
 ! D15   D(9,4,5,6)           -180.0            -DE/DX =    0.0                 !
 ! D16   D(9,4,5,10)             0.0            -DE/DX =    0.0                 !
 ! D17   D(4,5,6,1)             -0.0003         -DE/DX =    0.0                 !
 ! D18   D(4,5,6,11)           179.9996         -DE/DX =    0.0                 !
 ! D19   D(10,5,6,1)           179.9996         -DE/DX =    0.0                 !
 ! D20   D(10,5,6,11)           -0.0004         -DE/DX =    0.0                 !
 --------------------------------------------------------------------------------
 GradGradGradGradGradGradGradGradGradGradGradGradGradGradGradGradGradGrad

 Leave Link  103 at Sat Jun 27 03:24:19 2020, MaxMem=   524288000 cpu:               0.1 elap:               0.0
 (Enter /home/ubuntu/g16/l9999.exe)

 ----------------------------------------------------------------------

 Electric dipole moment (input orientation):
 (Debye = 10**-18 statcoulomb cm , SI units = C m)
                  (au)            (Debye)         (10**-30 SI)
   Tot        0.360115D+00      0.915322D+00      0.305319D+01
   x         -0.358862D+00     -0.912135D+00     -0.304256D+01
   y         -0.275894D-01     -0.701253D-01     -0.233913D+00
   z         -0.118439D-01     -0.301041D-01     -0.100417D+00

 Dipole polarizability, Alpha (input orientation).
 (esu units = cm**3 , SI units = C**2 m**2 J**-1)
 Alpha(0;0):
               (au)            (10**-24 esu)      (10**-40 SI)
   iso        0.593440D+02      0.879388D+01      0.978451D+01
   aniso      0.366195D+02      0.542645D+01      0.603774D+01
   xx         0.722682D+02      0.107090D+02      0.119154D+02
   yx         0.105958D+00      0.157013D-01      0.174701D-01
   yy         0.651545D+02      0.965491D+01      0.107425D+02
   zx         0.785849D-02      0.116451D-02      0.129569D-02
   zy         0.130802D+02      0.193829D+01      0.215664D+01
   zz         0.406094D+02      0.601769D+01      0.669558D+01

 ----------------------------------------------------------------------

 Dipole orientation:
     6         -2.22963894         -2.83791722          3.10384724
     6         -2.23898506         -2.86055737          0.49720800
     6         -1.46150184         -0.59072245         -0.67970192
     6         -0.68200538          1.67873683          0.49376809
     6         -0.68652719          1.65654347          3.10036886
     6         -1.45814743         -0.59075841          4.40915986
     1         -2.80162027         -4.49737510          4.18388368
     1         -2.80638453         -4.50778840         -0.60373395
     1         -0.11612460          3.32536788         -0.60850771
     1         -0.11328333          3.31672597          4.17930584
     1         -1.45813240         -0.58891477          6.47318594

 Electric dipole moment (dipole orientation):
 (Debye = 10**-18 statcoulomb cm , SI units = C m)
                  (au)            (Debye)         (10**-30 SI)
   Tot        0.360115D+00      0.915322D+00      0.305319D+01
   x          0.000000D+00      0.000000D+00      0.000000D+00
   y          0.000000D+00      0.000000D+00      0.000000D+00
   z          0.360115D+00      0.915322D+00      0.305319D+01

 Dipole polarizability, Alpha (dipole orientation).
 (esu units = cm**3 , SI units = C**2 m**2 J**-1)
 Alpha(0;0):
               (au)            (10**-24 esu)      (10**-40 SI)
   iso        0.593440D+02      0.879388D+01      0.978451D+01
   aniso      0.366195D+02      0.542645D+01      0.603774D+01
   xx         0.387271D+02      0.573877D+01      0.638524D+01
   yx         0.110148D+02      0.163222D+01      0.181609D+01
   yy         0.670301D+02      0.993284D+01      0.110518D+02
   zx         0.306809D-01      0.454644D-02      0.505859D-02
   zy         0.122166D-01      0.181031D-02      0.201424D-02
   zz         0.722749D+02      0.107100D+02      0.119165D+02

 ----------------------------------------------------------------------
 1\1\GINC-LC06-4-8\Freq\UB3LYP\Aug-CC-pVDZ\C6H5(1+,3)\UBUNTU\27-Jun-202
 0\0\\#P Geom=AllCheck Guess=TCheck SCRF=Check GenChk UB3LYP/Aug-CC-pVD
 Z Freq\\t-Ph+_UB3LYP-aug-cc-pVDZ\\1,3\C,-1.48657,-1.52534,-1.34484\C,-
 0.11092,-1.43118,-1.30532\C,0.40385,-0.22209,-0.78282\C,-0.32083,0.891
 43,-0.30018\C,-1.69439,0.77427,-0.34883\C,-2.27973,-0.42856,-0.86962\H
 ,-1.97867,-2.41805,-1.73254\H,0.54651,-2.22923,-1.65215\H,0.18362,1.77
 855,0.08417\H,-2.34084,1.57978,0.00199\H,-3.36824,-0.51127,-0.90546\\V
 ersion=ES64L-G16RevA.03\State=3-A\HF=-231.2518523\S2=2.017885\S2-1=0.\
 S2A=2.000075\RMSD=7.596e-10\RMSF=1.077e-04\ZeroPoint=0.0853664\Thermal
 =0.0901365\Dipole=-0.3588616,-0.0275894,-0.0118439\DipoleDeriv=-0.1932
 791,0.36808,0.1592881,0.2620283,-0.0527656,-0.0281208,0.1134938,-0.028
 1598,-0.0001567,-0.097732,-0.3345849,-0.1448501,-0.2871441,-0.1277775,
 -0.0527915,-0.1243771,-0.052774,-0.0279258,0.4325529,0.0031503,0.00100
 39,0.0044155,0.3472055,0.0775972,0.0015286,0.0774533,0.2020473,-0.2153
 495,0.3248025,0.1410624,0.2777275,-0.0353531,-0.0128405,0.1210402,-0.0
 127055,-0.012275,-0.0702551,-0.3669733,-0.1587641,-0.261663,-0.1467752
 ,-0.068615,-0.1135332,-0.0685433,-0.0164739,0.5003737,0.0022011,0.0008
 014,0.0011997,0.4053776,0.1164791,0.0003418,0.1169127,0.1852937,0.1079
 801,0.0041985,0.0018483,0.0098677,0.1119926,-0.014656,0.0042472,-0.014
 8577,0.1394989,0.1539365,-0.0238907,-0.0103671,-0.0096857,0.1390174,-0
 .0013902,-0.0040946,-0.001414,0.1416325,0.1475086,0.0251466,0.0108697,
 0.0110116,0.144496,0.0008306,0.0046305,0.0005769,0.1428405,0.1104375,-
 0.0035928,-0.001532,-0.0090327,0.1098976,-0.0155281,-0.0041459,-0.0156
 672,0.1390468,0.1238265,0.0014626,0.0006394,0.0012752,0.1046847,-0.000
 9648,0.0008686,-0.0008214,0.1064719\Polar=72.2682446,0.1059579,65.1545
 441,0.0078585,13.0802088,40.6093533\Quadrupole=2.3132546,2.7966084,-5.
 109863,-0.1803169,-0.0859555,4.2214642\PG=C01 [X(C6H5)]\NImag=0\\0.673
 02514,0.07918129,0.58025531,0.03415455,0.19876959,0.20811630,-0.417427
 43,-0.02484541,-0.01045992,0.67889316,-0.02266467,-0.08280676,-0.00971
 172,-0.07957121,0.55839972,-0.00948762,-0.00970144,-0.06470399,-0.0351
 2982,0.19032531,0.20166293,-0.01606637,-0.03946216,-0.01706398,-0.1139
 5093,-0.05979536,-0.02578238,0.28948612,0.00519415,-0.03673563,-0.0217
 9336,-0.01626464,-0.20081881,-0.06454268,-0.01213269,0.38587182,0.0022
 7714,-0.02165586,0.00400600,-0.00688383,-0.06450825,-0.07934077,-0.005
 49179,0.13449706,0.13311517,-0.01648726,0.01093725,0.00470811,0.060966
 08,0.02355650,0.01017166,-0.13045422,0.02985569,0.01293059,0.64816773,
 0.00571247,0.00114608,0.00154237,-0.00544522,-0.04473761,-0.02431694,0
 .07521208,-0.18680812,-0.05869539,0.08190443,0.58368707,0.00245759,0.0
 0150661,-0.00163770,-0.00244331,-0.02435051,0.00086927,0.03259055,-0.0
 5858672,-0.07669719,0.03490327,0.20128605,0.20610732,0.06853371,-0.012
 38386,-0.00543892,-0.01421994,-0.00896308,-0.00386427,-0.02315997,0.00
 025104,0.00015025,-0.41695309,-0.02879807,-0.01188867,0.70238576,0.031
 78045,-0.04646186,-0.02394582,-0.01406767,-0.00254548,-0.00005484,0.04
 299324,-0.02975982,-0.01875732,-0.02659027,-0.08344175,-0.00993914,-0.
 07266460,0.55589606,0.01372209,-0.02387461,-0.00166446,-0.00607764,-0.
 00006408,-0.00233333,0.01868639,-0.01871137,0.00527563,-0.01095106,-0.
 00993264,-0.06475876,-0.03241917,0.18827342,0.20390170,-0.15530849,0.0
 7989690,0.03458699,-0.02414652,0.03727240,0.01618628,-0.01547648,-0.01
 065810,-0.00461960,-0.01791239,-0.03544610,-0.01533372,-0.14331415,-0.
 07014771,-0.03037224,0.69135938,-0.00590194,-0.18129867,-0.05034445,-0
 .00056578,-0.02291311,-0.01237139,-0.01060594,0.09956094,0.04808280,0.
 00408233,-0.02905149,-0.01510613,0.01384485,-0.19098890,-0.05463875,0.
 01758795,0.40628180,-0.00258421,-0.05043359,-0.08669180,-0.00023717,-0
 .01239960,0.00026452,-0.00458692,0.04809044,0.00946511,0.00181470,-0.0
 1499485,-0.00088021,0.00604042,-0.05456029,-0.08867921,0.00751677,0.11
 139833,0.19738484,-0.11488925,-0.10869891,-0.04719861,-0.00911726,-0.0
 2362177,-0.01024237,-0.00638409,-0.00202708,-0.00086632,0.00023745,0.0
 0069946,0.00030043,-0.00208481,0.00300110,0.00129619,0.01054893,0.0175
 2497,0.00760221,0.11910062,-0.10678447,-0.24924198,-0.09111172,0.00382
 123,0.00540551,-0.00151047,0.00062316,-0.00007403,-0.00372532,-0.00116
 428,0.00055419,0.00125017,0.00253511,-0.00093897,-0.00194016,-0.010642
 54,-0.01129092,-0.00604273,0.11246216,0.25587775,-0.04639685,-0.091167
 28,-0.07896393,0.00170278,-0.00146078,0.00823758,0.00028625,-0.0037295
 4,0.00687973,-0.00051354,0.00124079,-0.00178146,0.00109662,-0.00193655
 ,0.00268828,-0.00462279,-0.00601955,0.00002879,0.04882155,0.10038901,0
 .06822674,-0.01047325,0.02170896,0.00943403,-0.15911870,0.12796757,0.0
 5563630,0.01136966,-0.01099570,-0.00478745,-0.00118494,-0.00393280,-0.
 00168956,-0.00093153,-0.00019150,-0.00008449,-0.00540179,-0.00022108,-
 0.00007967,0.00124349,0.00002053,0.00000038,0.16432445,-0.00582799,0.0
 0891196,-0.00030015,0.13102639,-0.20662537,-0.07405155,0.01207344,-0.0
 1541534,-0.00585403,-0.00155490,-0.00175432,-0.00250582,0.00062575,0.0
 0070561,0.00110250,-0.00153479,-0.00008594,-0.00407890,-0.00006595,-0.
 00033344,0.00231220,-0.13507540,0.21471309,-0.00251915,-0.00032537,0.0
 0949144,0.05695863,-0.07406699,-0.06836816,0.00521601,-0.00579800,-0.0
 0445529,-0.00065291,-0.00250445,0.00294908,0.00027387,0.00109652,-0.00
 136573,-0.00065062,-0.00409407,0.00755388,-0.00003007,0.00231790,-0.00
 466234,-0.05873830,0.08315466,0.05938998,-0.00078617,-0.00011619,-0.00
 005096,-0.00218894,0.00403921,0.00174901,0.01075987,0.01538932,0.00666
 355,-0.11523187,-0.10910095,-0.04724508,-0.00717825,-0.02419553,-0.010
 47125,-0.00560477,-0.00033408,-0.00012573,0.00001669,-0.00004163,-0.00
 001789,0.00056856,0.00052439,0.00022764,0.11865671,-0.00096963,0.00060
 103,0.00106131,0.00167899,-0.00086562,-0.00213383,-0.00765026,-0.01492
 066,-0.00560387,-0.11213032,-0.24382373,-0.08997937,0.00333315,0.00603
 595,-0.00153901,0.00095212,0.00010804,-0.00400459,-0.00006724,-0.00006
 476,0.00021006,-0.00037290,-0.00012649,-0.00067122,0.11490714,0.253449
 12,-0.00040772,0.00104629,-0.00138768,0.00072738,-0.00213827,0.0031281
 2,-0.00332933,-0.00562882,-0.00440903,-0.04856940,-0.09000860,-0.07512
 449,0.00144631,-0.00148693,0.00892402,0.00044686,-0.00398863,0.0076080
 9,-0.00002787,0.00021004,-0.00045829,-0.00016030,-0.00067084,0.0011322
 4,0.04974610,0.09972364,0.06647308,-0.00111507,-0.00288844,-0.00123528
 ,0.00017180,-0.00084194,-0.00036997,-0.00651874,0.00131184,0.00059368,
 -0.01219470,0.02096544,0.00912274,-0.15789422,0.12858913,0.05601624,0.
 01110333,-0.01369119,-0.00595454,0.00063954,-0.00061596,-0.00026508,-0
 .00000222,0.00006246,0.00002457,0.00121927,0.00015452,0.00005625,0.163
 94087,-0.00240138,-0.00179526,-0.00229845,0.00099010,0.00058621,0.0012
 6387,-0.00136647,0.00002661,-0.00366821,-0.00649022,0.00808274,-0.0003
 5769,0.12672746,-0.21264844,-0.07540478,0.01447866,-0.01173527,-0.0062
 6440,0.00080808,-0.00030560,-0.00070705,0.00003707,-0.00004747,0.00021
 358,0.00006998,-0.00031366,0.00232539,-0.13304175,0.21770601,-0.001009
 26,-0.00229873,0.00249296,0.00043858,0.00127370,-0.00177909,-0.0005574
 9,-0.00372794,0.00686310,-0.00282174,-0.00037485,0.00878455,0.05518573
 ,-0.07543559,-0.07228527,0.00627333,-0.00616149,-0.00001807,0.00035065
 ,-0.00070856,0.00102007,0.00001454,0.00021372,-0.00044612,0.00002319,0
 .00232555,-0.00466312,-0.05798148,0.08402002,0.06121829,-0.00900557,-0
 .00332942,-0.00143602,0.00013867,0.00262235,0.00113317,0.00039515,0.00
 007618,0.00003380,0.00104721,-0.00177074,-0.00077424,-0.00518351,0.001
 49337,0.00065494,-0.34584705,-0.02172009,-0.00940586,0.00068868,-0.000
 21331,-0.00009145,-0.00039373,-0.00025339,-0.00010968,-0.00023108,0.00
 016445,0.00007172,0.00065014,0.00018848,0.00008394,0.35774110,0.022681
 72,0.00742579,-0.00186761,0.00324323,-0.00307868,-0.00290605,0.0001109
 6,-0.00092697,-0.00011161,-0.00240619,-0.00385305,-0.00321745,-0.02450
 775,0.00414759,-0.00327052,-0.02175878,-0.05858649,-0.00670983,-0.0000
 1482,0.00041224,0.00086869,0.00105527,0.00005771,0.00067743,-0.0011416
 6,-0.00007922,0.00061674,-0.00000410,0.00044412,0.00087418,0.02274212,
 0.05403696,0.00979342,-0.00186561,0.01094285,0.00140432,-0.00289881,0.
 00236291,0.00003268,-0.00006908,-0.00070247,-0.00101969,-0.00324149,0.
 00216960,-0.01058216,-0.00325345,0.01029713,-0.00941127,-0.00675667,-0
 .04603593,-0.00000579,0.00087184,-0.00121518,0.00045452,0.00067821,-0.
 00121900,-0.00049858,0.00061131,-0.00122293,-0.00000714,0.00087773,-0.
 00118730,0.00983968,0.01504602,0.02581031\\-0.00018488,0.00016213,0.00
 019641,0.00002793,-0.00011141,-0.00001134,-0.00015337,0.00010429,0.000
 05113,0.00011644,0.00009282,-0.00006404,0.00002132,-0.00009497,-0.0000
 5542,0.00023399,-0.00021370,-0.00011140,0.00008187,0.00000519,-0.00006
 440,0.00004147,-0.00001378,-0.00002728,0.00001630,-0.00003570,0.000016
 64,0.00001310,0.00010856,0.00008967,-0.00021416,-0.00000343,-0.0000199
 7\\\@


 THERE IS SOMETHING FASCINATING ABOUT SCIENCE.
 ONE GETS SUCH WHOLESALE CONJECTURE OUT OF SUCH TRIFLING INVESTMENTS.

                                                       -- MARK TWAIN
 Job cpu time:       0 days  0 hours 39 minutes 53.3 seconds.
 Elapsed time:       0 days  0 hours  5 minutes 42.4 seconds.
 File lengths (MBytes):  RWF=     68 Int=      0 D2E=      0 Chk=      5 Scr=      1
 Normal termination of Gaussian 16 at Sat Jun 27 03:24:19 2020.
