 Entering Gaussian System, Link 0=/home/ubuntu/g16/g16
 Input=TfO-_UB3LYP-aug-cc-pVDZ-Opt.gjf
 Output=TfO-_UB3LYP-aug-cc-pVDZ-Opt.log
 Initial command:
 /home/ubuntu/g16/l1.exe "/home/ubuntu/g16/Gau-22528.inp" -scrdir="/home/ubuntu/g16/"
 Entering Link 1 = /home/ubuntu/g16/l1.exe PID=     22530.
  
 Copyright (c) 1988,1990,1992,1993,1995,1998,2003,2009,2016,
            Gaussian, Inc.  All Rights Reserved.
  
 This is part of the Gaussian(R) 16 program.  It is based on
 the Gaussian(R) 09 system (copyright 2009, Gaussian, Inc.),
 the Gaussian(R) 03 system (copyright 2003, Gaussian, Inc.),
 the Gaussian(R) 98 system (copyright 1998, Gaussian, Inc.),
 the Gaussian(R) 94 system (copyright 1995, Gaussian, Inc.),
 the Gaussian 92(TM) system (copyright 1992, Gaussian, Inc.),
 the Gaussian 90(TM) system (copyright 1990, Gaussian, Inc.),
 the Gaussian 88(TM) system (copyright 1988, Gaussian, Inc.),
 the Gaussian 86(TM) system (copyright 1986, Carnegie Mellon
 University), and the Gaussian 82(TM) system (copyright 1983,
 Carnegie Mellon University). Gaussian is a federally registered
 trademark of Gaussian, Inc.
  
 This software contains proprietary and confidential information,
 including trade secrets, belonging to Gaussian, Inc.
  
 This software is provided under written license and may be
 used, copied, transmitted, or stored only in accord with that
 written license.
  
 The following legend is applicable only to US Government
 contracts under FAR:
  
                    RESTRICTED RIGHTS LEGEND
  
 Use, reproduction and disclosure by the US Government is
 subject to restrictions as set forth in subparagraphs (a)
 and (c) of the Commercial Computer Software - Restricted
 Rights clause in FAR 52.227-19.
  
 Gaussian, Inc.
 340 Quinnipiac St., Bldg. 40, Wallingford CT 06492
  
  
 ---------------------------------------------------------------
 Warning -- This program may not be used in any manner that
 competes with the business of Gaussian, Inc. or will provide
 assistance to any competitor of Gaussian, Inc.  The licensee
 of this program is prohibited from giving any competitor of
 Gaussian, Inc. access to this program.  By using this program,
 the user acknowledges that Gaussian, Inc. is engaged in the
 business of creating and licensing software in the field of
 computational chemistry and represents and warrants to the
 licensee that it is not a competitor of Gaussian, Inc. and that
 it will not use this program in any manner prohibited above.
 ---------------------------------------------------------------
  

 Cite this work as:
 Gaussian 16, Revision A.03,
 M. J. Frisch, G. W. Trucks, H. B. Schlegel, G. E. Scuseria, 
 M. A. Robb, J. R. Cheeseman, G. Scalmani, V. Barone, 
 G. A. Petersson, H. Nakatsuji, X. Li, M. Caricato, A. V. Marenich, 
 J. Bloino, B. G. Janesko, R. Gomperts, B. Mennucci, H. P. Hratchian, 
 J. V. Ortiz, A. F. Izmaylov, J. L. Sonnenberg, D. Williams-Young, 
 F. Ding, F. Lipparini, F. Egidi, J. Goings, B. Peng, A. Petrone, 
 T. Henderson, D. Ranasinghe, V. G. Zakrzewski, J. Gao, N. Rega, 
 G. Zheng, W. Liang, M. Hada, M. Ehara, K. Toyota, R. Fukuda, 
 J. Hasegawa, M. Ishida, T. Nakajima, Y. Honda, O. Kitao, H. Nakai, 
 T. Vreven, K. Throssell, J. A. Montgomery, Jr., J. E. Peralta, 
 F. Ogliaro, M. J. Bearpark, J. J. Heyd, E. N. Brothers, K. N. Kudin, 
 V. N. Staroverov, T. A. Keith, R. Kobayashi, J. Normand, 
 K. Raghavachari, A. P. Rendell, J. C. Burant, S. S. Iyengar, 
 J. Tomasi, M. Cossi, J. M. Millam, M. Klene, C. Adamo, R. Cammi, 
 J. W. Ochterski, R. L. Martin, K. Morokuma, O. Farkas, 
 J. B. Foresman, and D. J. Fox, Gaussian, Inc., Wallingford CT, 2016.
 
 ******************************************
 Gaussian 16:  ES64L-G16RevA.03 25-Dec-2016
                 2-Aug-2020 
 ******************************************
 %chk=TfO-_UB3LYP-aug-cc-pVDZ-Opt.chk
 %mem=500MW
 %nproc=7
 Will use up to    7 processors via shared memory.
 ----------------------------------------------------------------------
 #p opt=(maxcycles=777) freq ub3lyp/aug-cc-pVDZ pop=(Bonding,AllOrbital
 s,mk,no,nboread)
 ----------------------------------------------------------------------
 1/6=777,18=20,19=15,26=3,38=1/1,3;
 2/9=110,12=2,17=6,18=5,40=1/2;
 3/5=16,7=10,11=2,25=1,30=1,71=1,74=-5,116=2/1,2,3;
 4//1;
 5/5=2,38=5/2;
 6/7=2,8=2,9=2,10=2,15=8,20=1,22=-1,27=20,28=1,31=1,40=2,96=-1/1,2,7;
 7//1,2,3,16;
 1/6=777,18=20,19=15,26=3/3(2);
 2/9=110/2;
 99//99;
 2/9=110/2;
 3/5=16,7=10,11=2,25=1,30=1,71=1,74=-5,116=2/1,2,3;
 4/5=5,16=3,69=1/1;
 5/5=2,38=5/2;
 7//1,2,3,16;
 1/6=777,18=20,19=15,26=3/3(-5);
 2/9=110/2;
 6/7=2,8=2,9=2,10=2,15=8,19=2,20=1,22=-1,27=20,28=1,31=1,40=2,96=-1/1,2,7;
 99/9=1/99;
 Leave Link    1 at Sun Aug  2 03:43:55 2020, MaxMem=   524288000 cpu:               0.3 elap:               0.0
 (Enter /home/ubuntu/g16/l101.exe)
 -----------------------
 TfO-_UB3LYP-aug-cc-pVDZ
 -----------------------
 Symbolic Z-matrix:
 Charge = -1 Multiplicity = 1
 S                     5.04601   0.66422  -0.07512 
 C                     6.79861   1.06787   0.56723 
 O                     4.17607   1.48392   0.83245 
 O                     4.9681   -0.82177   0.1207 
 F                     7.75653   0.41187  -0.13505 
 F                     7.07572   2.39295   0.47642 
 F                     6.94995   0.71775   1.86949 
 O                     5.11307   1.12773  -1.50093 
 
 ITRead=  0  0  0  0  0  0  0  0
 MicOpt= -1 -1 -1 -1 -1 -1 -1 -1
 NAtoms=      8 NQM=        8 NQMF=       0 NMMI=      0 NMMIF=      0
                NMic=       0 NMicF=      0.
                    Isotopes and Nuclear Properties:
 (Nuclear quadrupole moments (NQMom) in fm**2, nuclear magnetic moments (NMagM)
  in nuclear magnetons)

  Atom         1           2           3           4           5           6           7           8
 IAtWgt=          32          12          16          16          19          19          19          16
 AtmWgt=  31.9720718  12.0000000  15.9949146  15.9949146  18.9984033  18.9984033  18.9984033  15.9949146
 NucSpn=           0           0           0           0           1           1           1           0
 AtZEff=  -0.0000000  -0.0000000  -0.0000000  -0.0000000  -0.0000000  -0.0000000  -0.0000000  -0.0000000
 NQMom=    0.0000000   0.0000000   0.0000000   0.0000000   0.0000000   0.0000000   0.0000000   0.0000000
 NMagM=    0.0000000   0.0000000   0.0000000   0.0000000   2.6288670   2.6288670   2.6288670   0.0000000
 AtZNuc=  16.0000000   6.0000000   8.0000000   8.0000000   9.0000000   9.0000000   9.0000000   8.0000000
 Leave Link  101 at Sun Aug  2 03:43:55 2020, MaxMem=   524288000 cpu:               0.6 elap:               0.1
 (Enter /home/ubuntu/g16/l103.exe)

 GradGradGradGradGradGradGradGradGradGradGradGradGradGradGradGradGradGrad
 Berny optimization.
 Initialization pass.
                           ----------------------------
                           !    Initial Parameters    !
                           ! (Angstroms and Degrees)  !
 --------------------------                            --------------------------
 ! Name  Definition              Value          Derivative Info.                !
 --------------------------------------------------------------------------------
 ! R1    R(1,2)                  1.9098         estimate D2E/DX2                !
 ! R2    R(1,3)                  1.5008         estimate D2E/DX2                !
 ! R3    R(1,4)                  1.5009         estimate D2E/DX2                !
 ! R4    R(1,8)                  1.5008         estimate D2E/DX2                !
 ! R5    R(2,5)                  1.3569         estimate D2E/DX2                !
 ! R6    R(2,6)                  1.3568         estimate D2E/DX2                !
 ! R7    R(2,7)                  1.357          estimate D2E/DX2                !
 ! A1    A(2,1,3)              102.3047         estimate D2E/DX2                !
 ! A2    A(2,1,4)              102.2995         estimate D2E/DX2                !
 ! A3    A(2,1,8)              102.314          estimate D2E/DX2                !
 ! A4    A(3,1,4)              115.5803         estimate D2E/DX2                !
 ! A5    A(3,1,8)              115.5781         estimate D2E/DX2                !
 ! A6    A(4,1,8)              115.5988         estimate D2E/DX2                !
 ! A7    A(1,2,5)              111.8146         estimate D2E/DX2                !
 ! A8    A(1,2,6)              111.7985         estimate D2E/DX2                !
 ! A9    A(1,2,7)              111.753          estimate D2E/DX2                !
 ! A10   A(5,2,6)              107.0576         estimate D2E/DX2                !
 ! A11   A(5,2,7)              107.0511         estimate D2E/DX2                !
 ! A12   A(6,2,7)              107.064          estimate D2E/DX2                !
 ! D1    D(3,1,2,5)            179.9828         estimate D2E/DX2                !
 ! D2    D(3,1,2,6)            -59.9923         estimate D2E/DX2                !
 ! D3    D(3,1,2,7)             59.9979         estimate D2E/DX2                !
 ! D4    D(4,1,2,5)             59.9917         estimate D2E/DX2                !
 ! D5    D(4,1,2,6)           -179.9835         estimate D2E/DX2                !
 ! D6    D(4,1,2,7)            -59.9932         estimate D2E/DX2                !
 ! D7    D(8,1,2,5)            -60.023          estimate D2E/DX2                !
 ! D8    D(8,1,2,6)             60.0018         estimate D2E/DX2                !
 ! D9    D(8,1,2,7)            179.992          estimate D2E/DX2                !
 --------------------------------------------------------------------------------
 Trust Radius=3.00D-01 FncErr=1.00D-07 GrdErr=1.00D-06 EigMax=2.50D+02 EigMin=1.00D-04
 Number of steps in this run=    100 maximum allowed number of steps=    100.
 GradGradGradGradGradGradGradGradGradGradGradGradGradGradGradGradGradGrad

 Leave Link  103 at Sun Aug  2 03:43:55 2020, MaxMem=   524288000 cpu:               0.1 elap:               0.0
 (Enter /home/ubuntu/g16/l202.exe)
                          Input orientation:                          
 ---------------------------------------------------------------------
 Center     Atomic      Atomic             Coordinates (Angstroms)
 Number     Number       Type             X           Y           Z
 ---------------------------------------------------------------------
      1         16           0        5.046010    0.664220   -0.075120
      2          6           0        6.798610    1.067870    0.567230
      3          8           0        4.176070    1.483920    0.832450
      4          8           0        4.968100   -0.821770    0.120700
      5          9           0        7.756530    0.411870   -0.135050
      6          9           0        7.075720    2.392950    0.476420
      7          9           0        6.949950    0.717750    1.869490
      8          8           0        5.113070    1.127730   -1.500930
 ---------------------------------------------------------------------
                    Distance matrix (angstroms):
                    1          2          3          4          5
     1  S    0.000000
     2  C    1.909752   0.000000
     3  O    1.500795   2.668549   0.000000
     4  O    1.500860   2.668501   2.539706   0.000000
     5  F    2.722901   1.356888   3.860705   3.059839   0.000000
     6  F    2.722577   1.356788   3.059585   3.860443   2.182218
     7  F    2.722014   1.356970   3.058902   3.058777   2.182273
     8  O    1.500757   2.668691   2.539587   2.539931   3.060386
                    6          7          8
     6  F    0.000000
     7  F    2.182374   0.000000
     8  O    3.059851   3.860303   0.000000
 Stoichiometry    CF3O3S(1-)
 Framework group  C1[X(CF3O3S)]
 Deg. of freedom    18
 Full point group                 C1      NOp   1
 Largest Abelian subgroup         C1      NOp   1
 Largest concise Abelian subgroup C1      NOp   1
                         Standard orientation:                         
 ---------------------------------------------------------------------
 Center     Atomic      Atomic             Coordinates (Angstroms)
 Number     Number       Type             X           Y           Z
 ---------------------------------------------------------------------
      1         16           0        0.944432   -0.000060   -0.000179
      2          6           0       -0.965320   -0.000200   -0.000037
      3          8           0        1.264385   -0.101963    1.462569
      4          8           0        1.264004    1.317908   -0.643154
      5          9           0       -1.469646    0.087705   -1.256648
      6          9           0       -1.469030   -1.132303    0.552677
      7          9           0       -1.468247    1.044780    0.704556
      8          8           0        1.264525   -1.215881   -0.819686
 ---------------------------------------------------------------------
 Rotational constants (GHZ):           2.6097625           1.5037841           1.5036824
 Leave Link  202 at Sun Aug  2 03:43:55 2020, MaxMem=   524288000 cpu:               0.1 elap:               0.0
 (Enter /home/ubuntu/g16/l301.exe)
 Standard basis: Aug-CC-pVDZ (5D, 7F)
 Ernie: Thresh=  0.10000D-02 Tol=  0.10000D-05 Strict=F.
 Ernie:  24 primitive shells out of 228 were deleted.
 There are   204 symmetry adapted cartesian basis functions of A   symmetry.
 There are   188 symmetry adapted basis functions of A   symmetry.
   188 basis functions,   382 primitive gaussians,   204 cartesian basis functions
    37 alpha electrons       37 beta electrons
       nuclear repulsion energy       540.9563159252 Hartrees.
 IExCor=  402 DFT=T Ex+Corr=B3LYP ExCW=0 ScaHFX=  0.200000
 ScaDFX=  0.800000  0.720000  1.000000  0.810000 ScalE2=  1.000000  1.000000
 IRadAn=      5 IRanWt=     -1 IRanGd=            0 ICorTp=0 IEmpDi=  4
 NAtoms=    8 NActive=    8 NUniq=    8 SFac= 1.00D+00 NAtFMM=   60 NAOKFM=F Big=F
 Integral buffers will be    131072 words long.
 Raffenetti 2 integral format.
 Two-electron integral symmetry is turned on.
 Leave Link  301 at Sun Aug  2 03:43:55 2020, MaxMem=   524288000 cpu:               0.3 elap:               0.0
 (Enter /home/ubuntu/g16/l302.exe)
 NPDir=0 NMtPBC=     1 NCelOv=     1 NCel=       1 NClECP=     1 NCelD=      1
         NCelK=      1 NCelE2=     1 NClLst=     1 CellRange=     0.0.
 One-electron integrals computed using PRISM.
 One-electron integral symmetry used in STVInt
 NBasis=   188 RedAO= T EigKep=  2.13D-04  NBF=   188
 NBsUse=   188 1.00D-06 EigRej= -1.00D+00 NBFU=   188
 Precomputing XC quadrature grid using
 IXCGrd= 4 IRadAn=           5 IRanWt=          -1 IRanGd=           0 AccXCQ= 0.00D+00.
 Generated NRdTot=       0 NPtTot=           0 NUsed=           0 NTot=          32
 NSgBfM=   204   204   204   204   204 MxSgAt=     8 MxSgA2=     8.
 Leave Link  302 at Sun Aug  2 03:43:55 2020, MaxMem=   524288000 cpu:               1.6 elap:               0.2
 (Enter /home/ubuntu/g16/l303.exe)
 DipDrv:  MaxL=1.
 Leave Link  303 at Sun Aug  2 03:43:55 2020, MaxMem=   524288000 cpu:               0.2 elap:               0.0
 (Enter /home/ubuntu/g16/l401.exe)
 ExpMin= 3.99D-02 ExpMax= 1.11D+05 ExpMxC= 1.07D+03 IAcc=3 IRadAn=         5 AccDes= 0.00D+00
 Harris functional with IExCor=  402 and IRadAn=       5 diagonalized for initial guess.
 HarFok:  IExCor=  402 AccDes= 0.00D+00 IRadAn=         5 IDoV= 1 UseB2=F ITyADJ=14
 ICtDFT=  3500011 ScaDFX=  1.000000  1.000000  1.000000  1.000000
 FoFCou: FMM=F IPFlag=           0 FMFlag=      100000 FMFlg1=           0
         NFxFlg=           0 DoJE=T BraDBF=F KetDBF=T FulRan=T
         wScrn=  0.000000 ICntrl=       500 IOpCl=  0 I1Cent=   200000004 NGrid=           0
         NMat0=    1 NMatS0=      1 NMatT0=    0 NMatD0=    1 NMtDS0=    0 NMtDT0=    0
 Petite list used in FoFCou.
 Harris En= -961.765585102829    
 JPrj=0 DoOrth=F DoCkMO=F.
 Initial guess <Sx>= 0.0000 <Sy>= 0.0000 <Sz>= 0.0000 <S**2>= 0.0000 S= 0.0000
 Leave Link  401 at Sun Aug  2 03:43:56 2020, MaxMem=   524288000 cpu:               7.4 elap:               1.1
 (Enter /home/ubuntu/g16/l502.exe)
 Keep R1 and R2 ints in memory in canonical form, NReq=322881523.
 FoFCou: FMM=F IPFlag=           0 FMFlag=           0 FMFlg1=           0
         NFxFlg=           0 DoJE=F BraDBF=F KetDBF=F FulRan=T
         wScrn=  0.000000 ICntrl=       600 IOpCl=  0 I1Cent=           0 NGrid=           0
         NMat0=    1 NMatS0=  17766 NMatT0=    0 NMatD0=    1 NMtDS0=    0 NMtDT0=    0
 Symmetry not used in FoFCou.
 Two-electron integral symmetry not used.
 UHF open shell SCF:
 Using DIIS extrapolation, IDIIS=  1040.
 NGot=   524288000 LenX=   208552912 LenY=   208510855
 Requested convergence on RMS density matrix=1.00D-08 within 128 cycles.
 Requested convergence on MAX density matrix=1.00D-06.
 Requested convergence on             energy=1.00D-06.
 No special actions if energy rises.

 Cycle   1  Pass 1  IDiag  1:
 E= -961.232073110524    
 DIIS: error= 4.08D-02 at cycle   1 NSaved=   1.
 NSaved= 1 IEnMin= 1 EnMin= -961.232073110524     IErMin= 1 ErrMin= 4.08D-02
 ErrMax= 4.08D-02  0.00D+00 EMaxC= 1.00D-01 BMatC= 2.09D+00 BMatP= 2.09D+00
 IDIUse=3 WtCom= 5.92D-01 WtEn= 4.08D-01
 Coeff-Com:  0.100D+01
 Coeff-En:   0.100D+01
 Coeff:      0.100D+01
 Gap=     0.353 Goal=   None    Shift=    0.000
 Gap=     0.353 Goal=   None    Shift=    0.000
 GapD=    0.353 DampG=1.000 DampE=0.500 DampFc=0.5000 IDamp=-1.
 Damping current iteration by 5.00D-01
 RMSDP=1.16D-02 MaxDP=3.73D-01              OVMax= 4.98D-01

 Cycle   2  Pass 1  IDiag  1:
 E= -961.166921113211     Delta-E=        0.065151997313 Rises=F Damp=T
 DIIS: error= 2.52D-02 at cycle   2 NSaved=   2.
 NSaved= 2 IEnMin= 1 EnMin= -961.232073110524     IErMin= 2 ErrMin= 2.52D-02
 ErrMax= 2.52D-02  0.00D+00 EMaxC= 1.00D-01 BMatC= 6.41D-01 BMatP= 2.09D+00
 IDIUse=3 WtCom= 7.48D-01 WtEn= 2.52D-01
 Coeff-Com:  0.348D+00 0.652D+00
 Coeff-En:   0.551D+00 0.449D+00
 Coeff:      0.399D+00 0.601D+00
 Gap=     0.227 Goal=   None    Shift=    0.000
 Gap=     0.227 Goal=   None    Shift=    0.000
 RMSDP=3.17D-03 MaxDP=1.24D-01 DE= 6.52D-02 OVMax= 3.56D-01

 Cycle   3  Pass 1  IDiag  1:
 E= -961.609076311529     Delta-E=       -0.442155198318 Rises=F Damp=F
 DIIS: error= 5.58D-03 at cycle   3 NSaved=   3.
 NSaved= 3 IEnMin= 3 EnMin= -961.609076311529     IErMin= 3 ErrMin= 5.58D-03
 ErrMax= 5.58D-03  0.00D+00 EMaxC= 1.00D-01 BMatC= 3.56D-02 BMatP= 6.41D-01
 IDIUse=3 WtCom= 9.44D-01 WtEn= 5.58D-02
 Coeff-Com:  0.151D+00 0.209D+00 0.641D+00
 Coeff-En:   0.000D+00 0.000D+00 0.100D+01
 Coeff:      0.142D+00 0.197D+00 0.661D+00
 Gap=     0.239 Goal=   None    Shift=    0.000
 Gap=     0.239 Goal=   None    Shift=    0.000
 RMSDP=7.02D-04 MaxDP=1.77D-02 DE=-4.42D-01 OVMax= 2.99D-02

 Cycle   4  Pass 1  IDiag  1:
 E= -961.615191681676     Delta-E=       -0.006115370147 Rises=F Damp=F
 DIIS: error= 1.92D-03 at cycle   4 NSaved=   4.
 NSaved= 4 IEnMin= 4 EnMin= -961.615191681676     IErMin= 4 ErrMin= 1.92D-03
 ErrMax= 1.92D-03  0.00D+00 EMaxC= 1.00D-01 BMatC= 4.82D-03 BMatP= 3.56D-02
 IDIUse=3 WtCom= 9.81D-01 WtEn= 1.92D-02
 Coeff-Com:  0.913D-02 0.132D-01 0.269D+00 0.709D+00
 Coeff-En:   0.000D+00 0.000D+00 0.243D-01 0.976D+00
 Coeff:      0.895D-02 0.130D-01 0.264D+00 0.714D+00
 Gap=     0.239 Goal=   None    Shift=    0.000
 Gap=     0.239 Goal=   None    Shift=    0.000
 RMSDP=1.68D-04 MaxDP=5.56D-03 DE=-6.12D-03 OVMax= 7.91D-03

 Cycle   5  Pass 1  IDiag  1:
 E= -961.616043899407     Delta-E=       -0.000852217731 Rises=F Damp=F
 DIIS: error= 4.42D-04 at cycle   5 NSaved=   5.
 NSaved= 5 IEnMin= 5 EnMin= -961.616043899407     IErMin= 5 ErrMin= 4.42D-04
 ErrMax= 4.42D-04  0.00D+00 EMaxC= 1.00D-01 BMatC= 2.24D-04 BMatP= 4.82D-03
 IDIUse=3 WtCom= 9.96D-01 WtEn= 4.42D-03
 Coeff-Com: -0.171D-03-0.109D-02 0.887D-01 0.296D+00 0.617D+00
 Coeff-En:   0.000D+00 0.000D+00 0.000D+00 0.000D+00 0.100D+01
 Coeff:     -0.170D-03-0.108D-02 0.883D-01 0.295D+00 0.618D+00
 Gap=     0.238 Goal=   None    Shift=    0.000
 Gap=     0.238 Goal=   None    Shift=    0.000
 RMSDP=4.51D-05 MaxDP=1.63D-03 DE=-8.52D-04 OVMax= 2.05D-03

 Cycle   6  Pass 1  IDiag  1:
 E= -961.616089971626     Delta-E=       -0.000046072219 Rises=F Damp=F
 DIIS: error= 1.02D-04 at cycle   6 NSaved=   6.
 NSaved= 6 IEnMin= 6 EnMin= -961.616089971626     IErMin= 6 ErrMin= 1.02D-04
 ErrMax= 1.02D-04  0.00D+00 EMaxC= 1.00D-01 BMatC= 1.44D-05 BMatP= 2.24D-04
 IDIUse=3 WtCom= 9.99D-01 WtEn= 1.02D-03
 Coeff-Com: -0.524D-03-0.205D-02 0.198D-01 0.726D-01 0.261D+00 0.649D+00
 Coeff-En:   0.000D+00 0.000D+00 0.000D+00 0.000D+00 0.000D+00 0.100D+01
 Coeff:     -0.524D-03-0.205D-02 0.198D-01 0.726D-01 0.261D+00 0.649D+00
 Gap=     0.238 Goal=   None    Shift=    0.000
 Gap=     0.238 Goal=   None    Shift=    0.000
 RMSDP=9.84D-06 MaxDP=2.53D-04 DE=-4.61D-05 OVMax= 4.63D-04

 Cycle   7  Pass 1  IDiag  1:
 E= -961.616092918621     Delta-E=       -0.000002946995 Rises=F Damp=F
 DIIS: error= 2.58D-05 at cycle   7 NSaved=   7.
 NSaved= 7 IEnMin= 7 EnMin= -961.616092918621     IErMin= 7 ErrMin= 2.58D-05
 ErrMax= 2.58D-05  0.00D+00 EMaxC= 1.00D-01 BMatC= 1.06D-06 BMatP= 1.44D-05
 IDIUse=1 WtCom= 1.00D+00 WtEn= 0.00D+00
 Coeff-Com: -0.138D-03-0.920D-03 0.440D-02 0.169D-01 0.869D-01 0.286D+00
 Coeff-Com:  0.607D+00
 Coeff:     -0.138D-03-0.920D-03 0.440D-02 0.169D-01 0.869D-01 0.286D+00
 Coeff:      0.607D+00
 Gap=     0.238 Goal=   None    Shift=    0.000
 Gap=     0.238 Goal=   None    Shift=    0.000
 RMSDP=2.83D-06 MaxDP=1.14D-04 DE=-2.95D-06 OVMax= 1.11D-04

 Cycle   8  Pass 1  IDiag  1:
 E= -961.616093065966     Delta-E=       -0.000000147346 Rises=F Damp=F
 DIIS: error= 1.07D-05 at cycle   8 NSaved=   8.
 NSaved= 8 IEnMin= 8 EnMin= -961.616093065966     IErMin= 8 ErrMin= 1.07D-05
 ErrMax= 1.07D-05  0.00D+00 EMaxC= 1.00D-01 BMatC= 2.75D-07 BMatP= 1.06D-06
 IDIUse=1 WtCom= 1.00D+00 WtEn= 0.00D+00
 Coeff-Com:  0.275D-05-0.314D-03 0.673D-03 0.243D-02 0.236D-01 0.946D-01
 Coeff-Com:  0.369D+00 0.510D+00
 Coeff:      0.275D-05-0.314D-03 0.673D-03 0.243D-02 0.236D-01 0.946D-01
 Coeff:      0.369D+00 0.510D+00
 Gap=     0.238 Goal=   None    Shift=    0.000
 Gap=     0.238 Goal=   None    Shift=    0.000
 RMSDP=1.45D-06 MaxDP=4.17D-05 DE=-1.47D-07 OVMax= 5.91D-05

 Cycle   9  Pass 1  IDiag  1:
 E= -961.616093110622     Delta-E=       -0.000000044656 Rises=F Damp=F
 DIIS: error= 4.91D-06 at cycle   9 NSaved=   9.
 NSaved= 9 IEnMin= 9 EnMin= -961.616093110622     IErMin= 9 ErrMin= 4.91D-06
 ErrMax= 4.91D-06  0.00D+00 EMaxC= 1.00D-01 BMatC= 3.98D-08 BMatP= 2.75D-07
 IDIUse=1 WtCom= 1.00D+00 WtEn= 0.00D+00
 Coeff-Com:  0.171D-04-0.938D-04-0.777D-04-0.471D-03 0.470D-02 0.255D-01
 Coeff-Com:  0.163D+00 0.330D+00 0.477D+00
 Coeff:      0.171D-04-0.938D-04-0.777D-04-0.471D-03 0.470D-02 0.255D-01
 Coeff:      0.163D+00 0.330D+00 0.477D+00
 Gap=     0.238 Goal=   None    Shift=    0.000
 Gap=     0.238 Goal=   None    Shift=    0.000
 RMSDP=5.24D-07 MaxDP=2.04D-05 DE=-4.47D-08 OVMax= 2.91D-05

 Cycle  10  Pass 1  IDiag  1:
 E= -961.616093117694     Delta-E=       -0.000000007072 Rises=F Damp=F
 DIIS: error= 1.32D-06 at cycle  10 NSaved=  10.
 NSaved=10 IEnMin=10 EnMin= -961.616093117694     IErMin=10 ErrMin= 1.32D-06
 ErrMax= 1.32D-06  0.00D+00 EMaxC= 1.00D-01 BMatC= 3.92D-09 BMatP= 3.98D-08
 IDIUse=1 WtCom= 1.00D+00 WtEn= 0.00D+00
 Coeff-Com:  0.609D-05-0.139D-04-0.123D-03-0.562D-03-0.412D-03 0.175D-02
 Coeff-Com:  0.416D-01 0.126D+00 0.290D+00 0.542D+00
 Coeff:      0.609D-05-0.139D-04-0.123D-03-0.562D-03-0.412D-03 0.175D-02
 Coeff:      0.416D-01 0.126D+00 0.290D+00 0.542D+00
 Gap=     0.238 Goal=   None    Shift=    0.000
 Gap=     0.238 Goal=   None    Shift=    0.000
 RMSDP=1.44D-07 MaxDP=3.79D-06 DE=-7.07D-09 OVMax= 5.10D-06

 Cycle  11  Pass 1  IDiag  1:
 E= -961.616093118412     Delta-E=       -0.000000000718 Rises=F Damp=F
 DIIS: error= 1.55D-07 at cycle  11 NSaved=  11.
 NSaved=11 IEnMin=11 EnMin= -961.616093118412     IErMin=11 ErrMin= 1.55D-07
 ErrMax= 1.55D-07  0.00D+00 EMaxC= 1.00D-01 BMatC= 3.99D-11 BMatP= 3.92D-09
 IDIUse=1 WtCom= 1.00D+00 WtEn= 0.00D+00
 Coeff-Com: -0.490D-07 0.475D-05-0.319D-04-0.148D-03-0.570D-03-0.135D-02
 Coeff-Com: -0.342D-02 0.843D-02 0.388D-01 0.107D+00 0.851D+00
 Coeff:     -0.490D-07 0.475D-05-0.319D-04-0.148D-03-0.570D-03-0.135D-02
 Coeff:     -0.342D-02 0.843D-02 0.388D-01 0.107D+00 0.851D+00
 Gap=     0.238 Goal=   None    Shift=    0.000
 Gap=     0.238 Goal=   None    Shift=    0.000
 RMSDP=2.56D-08 MaxDP=7.18D-07 DE=-7.18D-10 OVMax= 7.60D-07

 Cycle  12  Pass 1  IDiag  1:
 E= -961.616093118431     Delta-E=       -0.000000000019 Rises=F Damp=F
 DIIS: error= 2.48D-08 at cycle  12 NSaved=  12.
 NSaved=12 IEnMin=12 EnMin= -961.616093118431     IErMin=12 ErrMin= 2.48D-08
 ErrMax= 2.48D-08  0.00D+00 EMaxC= 1.00D-01 BMatC= 1.04D-12 BMatP= 3.99D-11
 IDIUse=1 WtCom= 1.00D+00 WtEn= 0.00D+00
 Coeff-Com: -0.306D-06 0.131D-05-0.396D-05-0.175D-04-0.857D-04-0.159D-03
 Coeff-Com: -0.122D-02-0.683D-03 0.144D-02 0.694D-02 0.132D+00 0.861D+00
 Coeff:     -0.306D-06 0.131D-05-0.396D-05-0.175D-04-0.857D-04-0.159D-03
 Coeff:     -0.122D-02-0.683D-03 0.144D-02 0.694D-02 0.132D+00 0.861D+00
 Gap=     0.238 Goal=   None    Shift=    0.000
 Gap=     0.238 Goal=   None    Shift=    0.000
 RMSDP=3.96D-09 MaxDP=1.10D-07 DE=-1.93D-11 OVMax= 1.76D-07

 SCF Done:  E(UB3LYP) =  -961.616093118     A.U. after   12 cycles
            NFock= 12  Conv=0.40D-08     -V/T= 2.0046
 <Sx>= 0.0000 <Sy>= 0.0000 <Sz>= 0.0000 <S**2>=-0.0000 S=-0.0000
 <L.S>= 0.000000000000E+00
 KE= 9.572105137298D+02 PE=-3.376020344130D+03 EE= 9.162374213567D+02
 Annihilation of the first spin contaminant:
 S**2 before annihilation    -0.0000,   after     0.0000
 Leave Link  502 at Sun Aug  2 03:44:28 2020, MaxMem=   524288000 cpu:             199.4 elap:              31.8
 (Enter /home/ubuntu/g16/l601.exe)
 Copying SCF densities to generalized density rwf, IOpCl= 1 IROHF=0.

 **********************************************************************

            Population analysis using the SCF density.

 **********************************************************************

 Orbital symmetries:
 Alpha Orbitals:
       Occupied  (A) (A) (A) (A) (A) (A) (A) (A) (A) (A) (A) (A)
                 (A) (A) (A) (A) (A) (A) (A) (A) (A) (A) (A) (A)
                 (A) (A) (A) (A) (A) (A) (A) (A) (A) (A) (A) (A)
                 (A)
       Virtual   (A) (A) (A) (A) (A) (A) (A) (A) (A) (A) (A) (A)
                 (A) (A) (A) (A) (A) (A) (A) (A) (A) (A) (A) (A)
                 (A) (A) (A) (A) (A) (A) (A) (A) (A) (A) (A) (A)
                 (A) (A) (A) (A) (A) (A) (A) (A) (A) (A) (A) (A)
                 (A) (A) (A) (A) (A) (A) (A) (A) (A) (A) (A) (A)
                 (A) (A) (A) (A) (A) (A) (A) (A) (A) (A) (A) (A)
                 (A) (A) (A) (A) (A) (A) (A) (A) (A) (A) (A) (A)
                 (A) (A) (A) (A) (A) (A) (A) (A) (A) (A) (A) (A)
                 (A) (A) (A) (A) (A) (A) (A) (A) (A) (A) (A) (A)
                 (A) (A) (A) (A) (A) (A) (A) (A) (A) (A) (A) (A)
                 (A) (A) (A) (A) (A) (A) (A) (A) (A) (A) (A) (A)
                 (A) (A) (A) (A) (A) (A) (A) (A) (A) (A) (A) (A)
                 (A) (A) (A) (A) (A) (A) (A)
 Beta  Orbitals:
       Occupied  (A) (A) (A) (A) (A) (A) (A) (A) (A) (A) (A) (A)
                 (A) (A) (A) (A) (A) (A) (A) (A) (A) (A) (A) (A)
                 (A) (A) (A) (A) (A) (A) (A) (A) (A) (A) (A) (A)
                 (A)
       Virtual   (A) (A) (A) (A) (A) (A) (A) (A) (A) (A) (A) (A)
                 (A) (A) (A) (A) (A) (A) (A) (A) (A) (A) (A) (A)
                 (A) (A) (A) (A) (A) (A) (A) (A) (A) (A) (A) (A)
                 (A) (A) (A) (A) (A) (A) (A) (A) (A) (A) (A) (A)
                 (A) (A) (A) (A) (A) (A) (A) (A) (A) (A) (A) (A)
                 (A) (A) (A) (A) (A) (A) (A) (A) (A) (A) (A) (A)
                 (A) (A) (A) (A) (A) (A) (A) (A) (A) (A) (A) (A)
                 (A) (A) (A) (A) (A) (A) (A) (A) (A) (A) (A) (A)
                 (A) (A) (A) (A) (A) (A) (A) (A) (A) (A) (A) (A)
                 (A) (A) (A) (A) (A) (A) (A) (A) (A) (A) (A) (A)
                 (A) (A) (A) (A) (A) (A) (A) (A) (A) (A) (A) (A)
                 (A) (A) (A) (A) (A) (A) (A) (A) (A) (A) (A) (A)
                 (A) (A) (A) (A) (A) (A) (A)
 The electronic state is 1-A.
     Natural Orbital Coefficients:
                           1         2         3         4         5
     Eigenvalues --     2.00000   2.00000   2.00000   2.00000   2.00000
   1 1   S  1S         -0.07341  -0.03721   0.00200  -0.01409   0.00408
   2        2S          0.01819   0.00543  -0.05175   0.01872  -0.04077
   3        3S         -0.06561   0.04994  -0.01786   0.01292  -0.07059
   4        4S          0.02695   0.02475   0.02064  -0.02565  -0.03038
   5        5S          0.01303   0.02031  -0.04579  -0.00960  -0.01465
   6        6PX        -0.27610   0.01180  -0.02302   0.08629  -0.18517
   7        6PY         0.03713   0.01221   0.00232   0.02510   0.04729
   8        6PZ         0.02357  -0.01748  -0.07000  -0.04033   0.07873
   9        7PX         0.35183   0.06086  -0.00182  -0.03435   0.02078
  10        7PY         0.03667  -0.01422  -0.00206   0.05118   0.07624
  11        7PZ         0.01100  -0.06331   0.03019   0.10797  -0.15826
  12        8PX         0.04896   0.02428   0.03556  -0.00168   0.01182
  13        8PY         0.00859   0.01043  -0.00030  -0.00249   0.02197
  14        8PZ         0.00031   0.02742   0.00788   0.02639  -0.04113
  15        9PX         0.00372  -0.00219   0.00386  -0.00102   0.00253
  16        9PY         0.00038  -0.00175   0.00079   0.01491   0.00560
  17        9PZ        -0.00404  -0.00587   0.00224  -0.03035  -0.00957
  18       10D 0        0.00098   0.00638  -0.03015  -0.09448  -0.01248
  19       10D+1       -0.00660  -0.01922   0.00042   0.00437   0.00463
  20       10D-1        0.00582   0.00027  -0.00454  -0.03568  -0.00493
  21       10D+2       -0.01240   0.01372   0.04828  -0.04998  -0.00528
  22       10D-2        0.00365   0.00724   0.00961   0.01519  -0.00707
  23       11D 0       -0.01731   0.02230  -0.00172  -0.01646   0.00390
  24       11D+1       -0.00110  -0.00495  -0.00048   0.00192  -0.00113
  25       11D-1        0.00394  -0.01208   0.00027   0.00824  -0.00035
  26       11D+2        0.02551   0.01602  -0.00816  -0.01307   0.00109
  27       11D-2       -0.00005   0.00013  -0.00038  -0.00617   0.00001
  28 2   C  1S          0.04890  -0.01095  -0.11270  -0.01019   0.06567
  29        2S         -0.20094   0.04922   0.31829   0.01261   0.04869
  30        3S         -0.16142   0.02537   0.18181   0.02013  -0.03198
  31        4S         -0.01203   0.00058   0.05492   0.00447  -0.00710
  32        5PX        -0.04302  -0.03767   0.03428   0.00027  -0.02313
  33        5PY        -0.00267   0.09951   0.02853  -0.01102   0.02117
  34        5PZ         0.01274   0.31885  -0.04193   0.06391  -0.06776
  35        6PX        -0.12582   0.00154   0.05357   0.02825   0.00391
  36        6PY        -0.00257   0.01681   0.00418  -0.00402   0.01331
  37        6PZ         0.00518   0.04948  -0.00735   0.03036  -0.03446
  38        7PX        -0.01787  -0.00073   0.00735   0.00491  -0.00424
  39        7PY        -0.00092   0.00559  -0.00140  -0.00543   0.00381
  40        7PZ         0.00598   0.01101   0.00325   0.01860  -0.01405
  41        8D 0        0.00567  -0.01288   0.00050  -0.02609   0.02656
  42        8D+1        0.00397  -0.03012   0.00652   0.01389   0.01911
  43        8D-1        0.00203   0.01040  -0.00073   0.00712   0.00274
  44        8D+2       -0.03192  -0.00631  -0.02067  -0.00494   0.00182
  45        8D-2       -0.00023  -0.01344  -0.00509  -0.00053  -0.00533
  46        9D 0        0.02231   0.00836  -0.00724  -0.01497  -0.00292
  47        9D+1        0.00093   0.00686   0.00020   0.00057  -0.01330
  48        9D-1        0.00028  -0.00467   0.00015  -0.00203  -0.00029
  49        9D+2       -0.03614   0.00926   0.01286   0.00142   0.00136
  50        9D-2        0.00184   0.00188  -0.00022   0.00061   0.00539
  51 3   O  1S         -0.01699   0.08823   0.06359  -0.02012  -0.04771
  52        2S          0.01635  -0.02670  -0.11226   0.02376   0.08003
  53        3S          0.01488  -0.05812  -0.13346   0.03914   0.12248
  54        4S          0.00663  -0.04124  -0.02036   0.03369   0.07048
  55        5PX         0.10656   0.03119   0.04735   0.04794   0.10153
  56        5PY         0.03566  -0.03032  -0.01071  -0.13575  -0.05769
  57        5PZ        -0.05108  -0.00061  -0.03548   0.04204   0.13849
  58        6PX         0.06788   0.02946   0.03326   0.02506   0.06000
  59        6PY         0.02234  -0.02169  -0.00797  -0.09213  -0.03984
  60        6PZ        -0.02908   0.00593  -0.01950   0.01024   0.06032
  61        7PX         0.00283   0.01240   0.01349   0.01144   0.01076
  62        7PY         0.00458  -0.00533  -0.00208  -0.03131  -0.01461
  63        7PZ        -0.00601   0.01097  -0.00352   0.00980  -0.00158
  64        8D 0        0.00416  -0.00040   0.00022   0.00181  -0.00464
  65        8D+1       -0.00624  -0.00182  -0.00168   0.00000  -0.00478
  66        8D-1       -0.00180   0.00089   0.00029   0.00292   0.00095
  67        8D+2       -0.00171   0.00010  -0.00005  -0.00067  -0.00108
  68        8D-2        0.00013   0.00040   0.00027   0.00084   0.00032
  69        9D 0        0.00147   0.00374   0.00027   0.00479   0.00353
  70        9D+1       -0.01063  -0.00519  -0.00378   0.00456  -0.00230
  71        9D-1       -0.00140   0.00201   0.00089   0.00345   0.00129
  72        9D+2       -0.00235  -0.00142  -0.00151   0.00105   0.00217
  73        9D-2        0.00036   0.00158   0.00096   0.00187   0.00131
  74 4   O  1S          0.02153  -0.01814  -0.00520  -0.03954  -0.01301
  75        2S          0.00638  -0.03365  -0.06257   0.05080  -0.08344
  76        3S         -0.00509  -0.03978  -0.07452   0.04912  -0.11211
  77        4S         -0.00554  -0.01285  -0.00789  -0.01790  -0.05075
  78        5PX         0.13513   0.07895   0.10478  -0.01024  -0.09048
  79        5PY        -0.06576  -0.06918  -0.00124   0.04063  -0.07439
  80        5PZ         0.06734  -0.01828   0.01207   0.26956   0.06454
  81        6PX         0.08909   0.05395   0.07293   0.00343  -0.05680
  82        6PY        -0.03387  -0.03854  -0.00189   0.04237  -0.02922
  83        6PZ         0.03923  -0.00941   0.00708   0.16863   0.03771
  84        7PX         0.00896   0.01368   0.02472   0.00371  -0.01351
  85        7PY        -0.00638  -0.00354  -0.00238   0.00737   0.00551
  86        7PZ         0.00825   0.00331   0.00038   0.04601   0.01062
  87        8D 0        0.00093  -0.00178   0.00080   0.00516  -0.00150
  88        8D+1        0.00271   0.00138   0.00147  -0.00227  -0.00100
  89        8D-1       -0.00375  -0.00029   0.00004  -0.00691  -0.00102
  90        8D+2       -0.00440  -0.00324   0.00030   0.00310  -0.00126
  91        8D-2       -0.00625  -0.00178  -0.00323   0.00022   0.00269
  92        9D 0        0.00254   0.00044   0.00099   0.00776   0.00218
  93        9D+1        0.00457   0.00227   0.00250  -0.00222  -0.00170
  94        9D-1       -0.00052  -0.00007  -0.00083  -0.00369   0.00334
  95        9D+2       -0.00171  -0.00260  -0.00186   0.00511   0.00202
  96        9D-2       -0.01136  -0.00405  -0.00591  -0.00594   0.00066
  97 5   F  1S         -0.04292  -0.00842   0.02003  -0.12595  -0.05612
  98        2S         -0.00536   0.02942  -0.08206   0.07108  -0.03368
  99        3S          0.00621   0.06813  -0.10985   0.10098  -0.04676
 100        4S         -0.00860   0.03470  -0.03751   0.04125  -0.00824
 101        5PX         0.08106  -0.20360   0.18736  -0.34165  -0.11168
 102        5PY         0.02378   0.08236   0.04250  -0.11720  -0.14988
 103        5PZ        -0.12626  -0.21808   0.16576  -0.00012   0.28795
 104        6PX         0.05811  -0.11662   0.11100  -0.21259  -0.08398
 105        6PY         0.01526   0.04788   0.02803  -0.07716  -0.09663
 106        6PZ        -0.07248  -0.10349   0.08641   0.01272   0.16986
 107        7PX         0.01427  -0.01496   0.01388  -0.03945  -0.02070
 108        7PY         0.00356   0.00408   0.00673  -0.01498  -0.02167
 109        7PZ        -0.01063  -0.01141  -0.00312   0.00736   0.03579
 110        8D 0       -0.00427  -0.00403   0.00523   0.00116   0.00475
 111        8D+1       -0.00145  -0.00603   0.00619  -0.00429   0.00139
 112        8D-1        0.00067   0.00283   0.00033  -0.00126  -0.00163
 113        8D+2       -0.00068  -0.00126   0.00137  -0.00199   0.00002
 114        8D-2        0.00017   0.00112  -0.00009  -0.00029  -0.00065
 115        9D 0       -0.00356   0.00712   0.00252   0.00518   0.00669
 116        9D+1        0.00079  -0.00268   0.00827  -0.00605  -0.00533
 117        9D-1        0.00103   0.00191   0.00131  -0.00373  -0.00467
 118        9D+2       -0.00012  -0.00047   0.00103  -0.00440  -0.00199
 119        9D-2       -0.00007   0.00083  -0.00047  -0.00113  -0.00142
 120 6   F  1S         -0.00149   0.00256   0.02838   0.06193  -0.08457
 121        2S         -0.05677  -0.02650  -0.07671  -0.00487   0.10917
 122        3S         -0.05529  -0.03760  -0.09246  -0.02040   0.13785
 123        4S         -0.02068  -0.00850  -0.02263  -0.00456   0.02245
 124        5PX         0.20182   0.04950   0.20652   0.05840   0.20596
 125        5PY        -0.13404   0.15759   0.06196  -0.01585  -0.08527
 126        5PZ        -0.04581   0.17357  -0.13517  -0.06214   0.28101
 127        6PX         0.13290   0.02924   0.12559   0.03467   0.14094
 128        6PY        -0.08373   0.08995   0.03025  -0.01274  -0.04120
 129        6PZ        -0.03002   0.10983  -0.08098  -0.03497   0.17679
 130        7PX         0.02863   0.00538   0.01918   0.00801   0.03394
 131        7PY        -0.01307   0.00670  -0.00375  -0.00079  -0.00951
 132        7PZ        -0.00861   0.01158  -0.00981  -0.00509   0.04139
 133        8D 0        0.00178  -0.00500  -0.00076   0.00043  -0.00102
 134        8D+1       -0.00046   0.00128  -0.00293  -0.00060   0.00008
 135        8D-1        0.00224   0.00233  -0.00396  -0.00140   0.00200
 136        8D+2        0.00371  -0.00390  -0.00077   0.00050   0.00098
 137        8D-2       -0.00008   0.00233   0.00469   0.00088   0.00196
 138        9D 0        0.00185  -0.00614  -0.00065  -0.00109  -0.00470
 139        9D+1       -0.00126   0.00328  -0.00427   0.00130  -0.00055
 140        9D-1        0.00152   0.00545  -0.00522   0.00038   0.00599
 141        9D+2        0.00537  -0.00323  -0.00038   0.00213   0.00087
 142        9D-2        0.00209   0.00271   0.00710   0.00188   0.00840
 143 7   F  1S         -0.03131  -0.00089   0.00095   0.01497  -0.02350
 144        2S         -0.01489  -0.08238  -0.08156  -0.00406   0.07440
 145        3S         -0.00777  -0.12699  -0.10234  -0.01114   0.09024
 146        4S         -0.01247  -0.04524  -0.03417  -0.01340   0.01655
 147        5PX         0.18182   0.11669   0.20095   0.06975   0.11598
 148        5PY         0.12575  -0.34688  -0.03956   0.09136  -0.01973
 149        5PZ         0.00832  -0.04900  -0.21888  -0.16883   0.15912
 150        6PX         0.11991   0.05937   0.11960   0.03992   0.07772
 151        6PY         0.07701  -0.18711  -0.01226   0.06194  -0.01954
 152        6PZ         0.00311  -0.01247  -0.12977  -0.10354   0.10011
 153        7PX         0.02572   0.00532   0.01602   0.00519   0.01858
 154        7PY         0.01112  -0.01944   0.01064   0.01650  -0.00521
 155        7PZ        -0.00318  -0.00160  -0.01520  -0.01964   0.02493
 156        8D 0        0.00088  -0.00414   0.00111   0.00120  -0.00098
 157        8D+1       -0.00027  -0.00178  -0.00415  -0.00121  -0.00035
 158        8D-1       -0.00312   0.00455   0.00533   0.00146  -0.00028
 159        8D+2        0.00311  -0.00540  -0.00029   0.00129  -0.00012
 160        8D-2        0.00011  -0.00526  -0.00444  -0.00070  -0.00164
 161        9D 0        0.00054  -0.00404   0.00291   0.00280  -0.00413
 162        9D+1       -0.00075   0.00257  -0.00521  -0.00057  -0.00135
 163        9D-1       -0.00245  -0.00406   0.00525   0.00131  -0.00185
 164        9D+2        0.00426  -0.00260   0.00070   0.00234  -0.00102
 165        9D-2       -0.00204  -0.00182  -0.00590   0.00009  -0.00431
 166 8   O  1S          0.00896  -0.03607   0.03578   0.04968  -0.05968
 167        2S          0.01473  -0.00231  -0.07926  -0.01643  -0.01853
 168        3S          0.01141   0.00909  -0.09097  -0.01120  -0.01707
 169        4S          0.00506   0.01287  -0.00497   0.00658  -0.00424
 170        5PX         0.13649  -0.00222   0.04122  -0.03163   0.00507
 171        5PY         0.04421   0.07755  -0.02363  -0.20331   0.07256
 172        5PZ         0.02833  -0.04094   0.00206   0.17528  -0.08650
 173        6PX         0.08887  -0.00808   0.02662  -0.02393   0.00359
 174        6PY         0.02524   0.04744  -0.01200  -0.12085   0.05020
 175        6PZ         0.01656  -0.02631   0.00227   0.11586  -0.06113
 176        7PX         0.00739  -0.00819   0.01028  -0.00827   0.00065
 177        7PY         0.00776   0.01059  -0.00112  -0.02778   0.01138
 178        7PZ         0.00514  -0.00400  -0.00130   0.03335  -0.01478
 179        8D 0        0.00074  -0.00230   0.00067   0.00716  -0.00365
 180        8D+1        0.00417   0.00026   0.00096  -0.00181   0.00138
 181        8D-1        0.00208   0.00154  -0.00083   0.00060  -0.00204
 182        8D+2       -0.00343  -0.00333   0.00116   0.00683  -0.00205
 183        8D-2        0.00615  -0.00055   0.00177   0.00106  -0.00024
 184        9D 0        0.00141  -0.00185   0.00104   0.00371  -0.00767
 185        9D+1        0.00644  -0.00002   0.00084  -0.00360   0.00303
 186        9D-1        0.00034  -0.00173   0.00052   0.00271  -0.00471
 187        9D+2       -0.00275  -0.00044  -0.00073   0.00141  -0.00508
 188        9D-2        0.01068  -0.00105   0.00266  -0.00050  -0.00056
                           6         7         8         9        10
     Eigenvalues --     2.00000   2.00000   2.00000   2.00000   2.00000
   1 1   S  1S         -0.02810   0.02245  -0.05925  -0.00130   0.04562
   2        2S          0.00779   0.01744  -0.02137   0.02530   0.02060
   3        3S         -0.13295   0.00209   0.05909  -0.06320   0.01894
   4        4S          0.01582   0.06125   0.11016  -0.03213  -0.00387
   5        5S         -0.06949  -0.00743   0.02742  -0.03728   0.03309
   6        6PX         0.25689   0.23345   0.14523   0.15877  -0.03536
   7        6PY        -0.04608   0.01568  -0.06301  -0.20862  -0.06441
   8        6PZ        -0.03193   0.01108  -0.00673  -0.05598  -0.06223
   9        7PX        -0.12870  -0.11804  -0.03870  -0.09580  -0.03697
  10        7PY        -0.01894   0.03277   0.00830   0.01236  -0.06851
  11        7PZ        -0.00006   0.06538  -0.05991  -0.11146   0.06713
  12        8PX        -0.05727  -0.05703  -0.02619  -0.01831  -0.01664
  13        8PY         0.02975  -0.03134  -0.00760   0.01678   0.00893
  14        8PZ         0.00374   0.05483  -0.01039  -0.04316   0.01987
  15        9PX         0.00207   0.00075  -0.00422   0.00241   0.00196
  16        9PY         0.00366  -0.00165   0.01311   0.00361  -0.01246
  17        9PZ        -0.01023   0.02238  -0.01084  -0.00739   0.01264
  18       10D 0       -0.05412   0.05092  -0.04799  -0.01635   0.05942
  19       10D+1       -0.00514   0.00502  -0.00583   0.05345  -0.03705
  20       10D-1       -0.00409  -0.00337  -0.02437  -0.00835   0.02018
  21       10D+2        0.01297   0.02545  -0.00610   0.00510  -0.02124
  22       10D-2       -0.01990   0.00741   0.01562  -0.03605   0.00462
  23       11D 0       -0.00212   0.01349   0.00455  -0.00487   0.00475
  24       11D+1        0.00497  -0.00896   0.00606   0.00254  -0.00494
  25       11D-1       -0.01947   0.01675   0.00531  -0.01062  -0.01211
  26       11D+2       -0.00388   0.00737   0.00372  -0.01574  -0.00231
  27       11D-2       -0.00276   0.00234  -0.00232  -0.00138   0.00052
  28 2   C  1S         -0.05138   0.09052   0.05474  -0.07512   0.02631
  29        2S         -0.02240  -0.02919  -0.05146  -0.03447  -0.10345
  30        3S          0.00906  -0.01821   0.09373   0.12261  -0.04239
  31        4S          0.04798   0.00415   0.03982   0.05104  -0.03324
  32        5PX         0.22699   0.11500   0.10447   0.08030  -0.06347
  33        5PY         0.14071  -0.15312  -0.12177   0.04638   0.20104
  34        5PZ         0.03177   0.06999   0.01035  -0.04223  -0.07773
  35        6PX         0.03590  -0.00898  -0.02740   0.00591  -0.05450
  36        6PY         0.02175  -0.03458  -0.01176   0.00332   0.01063
  37        6PZ         0.00667   0.01287  -0.01088   0.00193   0.00243
  38        7PX         0.01737   0.00326   0.01011   0.01124  -0.01260
  39        7PY        -0.00094  -0.00346  -0.00901  -0.00342   0.01145
  40        7PZ         0.00469  -0.00678   0.00032   0.00322  -0.01129
  41        8D 0        0.00678  -0.00482   0.00278  -0.00602   0.00903
  42        8D+1       -0.00935   0.00552  -0.01137   0.00355   0.02294
  43        8D-1       -0.00043  -0.00461  -0.00948  -0.00513   0.01196
  44        8D+2       -0.00865  -0.00870   0.01200   0.00780   0.00951
  45        8D-2       -0.01047   0.00918   0.01814  -0.00505  -0.02706
  46        9D 0        0.00368   0.00870   0.01016  -0.00604   0.00025
  47        9D+1        0.00441  -0.00442   0.00379  -0.01564  -0.00340
  48        9D-1       -0.00484   0.00063   0.00518  -0.00396  -0.00921
  49        9D+2       -0.01324  -0.00753  -0.01532  -0.01094  -0.00810
  50        9D-2        0.00248   0.00300  -0.00991   0.00726   0.00840
  51 3   O  1S          0.11530   0.13398   0.10807  -0.08799   0.12637
  52        2S         -0.02863  -0.12450  -0.04699   0.08495   0.00539
  53        3S         -0.02700  -0.18883  -0.05920   0.12989  -0.01476
  54        4S          0.03039  -0.07992  -0.00347   0.06701  -0.02801
  55        5PX         0.00812  -0.07279   0.01775   0.25172  -0.28628
  56        5PY        -0.05655   0.05035  -0.09353  -0.01100   0.02089
  57        5PZ         0.11261  -0.13225   0.06589   0.07534  -0.04128
  58        6PX         0.00222  -0.03262   0.00876   0.16844  -0.19556
  59        6PY        -0.03345   0.02893  -0.06450   0.00017   0.01195
  60        6PZ         0.05840  -0.05355   0.03662   0.02490  -0.00842
  61        7PX         0.00592   0.00203   0.00325   0.04903  -0.05754
  62        7PY        -0.00563   0.00475  -0.02104   0.00315   0.00902
  63        7PZ         0.00508  -0.01019   0.00850  -0.01603   0.00490
  64        8D 0       -0.00540   0.00058  -0.00195  -0.00277   0.00040
  65        8D+1       -0.00047   0.00336  -0.00083  -0.00688   0.00881
  66        8D-1        0.00240  -0.00176   0.00270   0.00100  -0.00027
  67        8D+2        0.00009   0.00058  -0.00004  -0.00159   0.00175
  68        8D-2        0.00027  -0.00060   0.00075   0.00030  -0.00060
  69        9D 0       -0.00154  -0.00715   0.00190   0.00478  -0.00845
  70        9D+1        0.00362  -0.00091   0.00222  -0.00848   0.01330
  71        9D-1        0.00081  -0.00083   0.00351  -0.00363   0.00241
  72        9D+2        0.00122   0.00157   0.00075  -0.00037   0.00470
  73        9D-2       -0.00016   0.00007   0.00145  -0.00096   0.00048
  74 4   O  1S          0.08011  -0.10103  -0.07753   0.05383  -0.11069
  75        2S         -0.06440   0.06245  -0.06245  -0.03344   0.02611
  76        3S         -0.08947   0.10233  -0.08623  -0.05273   0.03976
  77        4S         -0.01375   0.05852  -0.03690  -0.02561   0.00295
  78        5PX        -0.02989  -0.07965   0.03487  -0.24282   0.05404
  79        5PY         0.07418   0.04432  -0.08211   0.02856   0.03612
  80        5PZ         0.04022  -0.12028   0.08405  -0.07187  -0.05114
  81        6PX        -0.01318  -0.06302   0.03107  -0.16605   0.03801
  82        6PY         0.05107   0.01517  -0.03337   0.02092   0.01481
  83        6PZ         0.02760  -0.07416   0.04677  -0.05263  -0.02470
  84        7PX         0.00556  -0.01901   0.01270  -0.04206   0.01208
  85        7PY         0.00705  -0.00804  -0.01046   0.01136   0.00411
  86        7PZ         0.01472  -0.02107   0.01559  -0.01462  -0.00847
  87        8D 0        0.00214  -0.00113  -0.00022  -0.00198   0.00038
  88        8D+1       -0.00072  -0.00091  -0.00015  -0.00229   0.00069
  89        8D-1        0.00243   0.00238  -0.00234   0.00343   0.00233
  90        8D+2        0.00507   0.00091  -0.00173   0.00332   0.00056
  91        8D-2        0.00011   0.00310   0.00002   0.00657  -0.00147
  92        9D 0        0.00116  -0.00172   0.00032  -0.00516   0.00103
  93        9D+1       -0.00070  -0.00406   0.00159  -0.00323  -0.00164
  94        9D-1        0.00058   0.00188   0.00170   0.00610  -0.00397
  95        9D+2        0.00494   0.00270   0.00306   0.00337  -0.00246
  96        9D-2        0.00002   0.00820  -0.00395   0.01264  -0.00142
  97 5   F  1S         -0.05568  -0.04675  -0.00617  -0.06220  -0.07971
  98        2S          0.07484   0.07735  -0.23390  -0.03387  -0.03628
  99        3S          0.09836   0.09730  -0.26547  -0.04976  -0.05004
 100        4S          0.00191   0.03069  -0.06850   0.00768  -0.01240
 101        5PX         0.20115  -0.11532   0.11898  -0.12350  -0.07619
 102        5PY         0.15557  -0.14188  -0.23619   0.19485  -0.01293
 103        5PZ        -0.21014  -0.10385  -0.07824   0.04249   0.16390
 104        6PX         0.13142  -0.06866   0.07364  -0.08163  -0.05375
 105        6PY         0.09577  -0.08954  -0.15034   0.12486  -0.01059
 106        6PZ        -0.12081  -0.04964  -0.05974   0.02085   0.08795
 107        7PX         0.01516  -0.01451   0.00393  -0.02174  -0.00750
 108        7PY         0.01266  -0.01465  -0.02465   0.02187  -0.01336
 109        7PZ        -0.02048   0.00615  -0.01731   0.01330   0.01882
 110        8D 0       -0.00574  -0.00343  -0.00510  -0.00002   0.00283
 111        8D+1        0.00240  -0.00215  -0.00043  -0.00093  -0.00055
 112        8D-1        0.00404  -0.00274  -0.00318   0.00267   0.00244
 113        8D+2        0.00174  -0.00078   0.00043  -0.00029  -0.00032
 114        8D-2        0.00106  -0.00106  -0.00146   0.00118   0.00071
 115        9D 0       -0.00507  -0.00013  -0.00650  -0.00078   0.00019
 116        9D+1        0.00939  -0.00017   0.00107  -0.00181  -0.00644
 117        9D-1        0.00540  -0.00548  -0.00725   0.00573   0.00168
 118        9D+2        0.00367   0.00074   0.00144   0.00281  -0.00264
 119        9D-2        0.00175  -0.00315  -0.00315   0.00311  -0.00031
 120 6   F  1S         -0.03014   0.07656   0.02414   0.05037   0.14891
 121        2S          0.12491  -0.09310  -0.06248  -0.21792  -0.15153
 122        3S          0.15815  -0.12353  -0.09574  -0.24859  -0.15027
 123        4S          0.02510  -0.05266  -0.02250  -0.06815  -0.00829
 124        5PX        -0.00632   0.32160  -0.09453   0.04776  -0.03430
 125        5PY        -0.13386   0.01677   0.20393  -0.08726  -0.14874
 126        5PZ         0.21130  -0.00528   0.18041  -0.06288   0.24905
 127        6PX         0.00047   0.19911  -0.06671   0.02803  -0.00837
 128        6PY        -0.06359  -0.00706   0.11503  -0.06309  -0.07419
 129        6PZ         0.12292   0.00634   0.12556  -0.03771   0.15008
 130        7PX        -0.00761   0.02854  -0.02196   0.00023   0.00632
 131        7PY        -0.00171  -0.01039   0.02860  -0.01841  -0.01077
 132        7PZ         0.01382   0.01025   0.02612  -0.00323   0.02922
 133        8D 0       -0.00089  -0.00073  -0.00143   0.00133   0.00132
 134        8D+1        0.00118  -0.00231   0.00092   0.00016   0.00329
 135        8D-1        0.00585  -0.00023   0.00109   0.00207   0.00590
 136        8D+2        0.00360   0.00222  -0.00139   0.00334   0.00334
 137        8D-2       -0.00023   0.00471   0.00042  -0.00153  -0.00476
 138        9D 0       -0.00432  -0.00021  -0.00467   0.00300  -0.00395
 139        9D+1       -0.00117  -0.00200   0.00265  -0.00144   0.00455
 140        9D-1        0.00201   0.00589   0.00579   0.00058   0.00397
 141        9D+2        0.00022   0.00754  -0.00003   0.00333   0.00021
 142        9D-2        0.00476   0.00723  -0.00125  -0.00157  -0.00010
 143 7   F  1S         -0.02999  -0.09560  -0.01440   0.03870  -0.00161
 144        2S          0.08764   0.06323  -0.14952  -0.15741  -0.05063
 145        3S          0.08705   0.09131  -0.16220  -0.18870  -0.07120
 146        4S         -0.00183   0.01635  -0.03543  -0.04142  -0.01121
 147        5PX         0.14490   0.06776  -0.05684  -0.02081   0.07500
 148        5PY         0.08185   0.12678   0.14090  -0.03684   0.06745
 149        5PZ        -0.03379   0.14643   0.03952   0.06211  -0.24152
 150        6PX         0.08832   0.04933  -0.03177  -0.01586   0.04563
 151        6PY         0.05451   0.06828   0.08756  -0.01655   0.05663
 152        6PZ        -0.01916   0.08209   0.02021   0.04783  -0.14463
 153        7PX         0.00431   0.00596  -0.01201  -0.00870   0.01161
 154        7PY         0.00859   0.00839   0.02198  -0.00598   0.00809
 155        7PZ        -0.00483   0.01087  -0.00428   0.01856  -0.02329
 156        8D 0        0.00022  -0.00161  -0.00072   0.00066   0.00361
 157        8D+1       -0.00270   0.00085   0.00192   0.00053  -0.00183
 158        8D-1       -0.00066  -0.00444  -0.00509  -0.00146   0.00282
 159        8D+2        0.00266   0.00238   0.00206   0.00134   0.00134
 160        8D-2       -0.00302  -0.00011   0.00264   0.00087   0.00007
 161        9D 0        0.00064  -0.00357   0.00081  -0.00197   0.00664
 162        9D+1       -0.00630   0.00039  -0.00208   0.00079   0.00015
 163        9D-1       -0.00236  -0.00228  -0.00169  -0.00344  -0.00036
 164        9D+2        0.00692   0.00119   0.00326   0.00158   0.00690
 165        9D-2       -0.00522  -0.00485   0.00201   0.00049   0.00184
 166 8   O  1S          0.03141   0.12950   0.04354   0.01024  -0.02627
 167        2S          0.02796  -0.01940  -0.04948   0.00415   0.04418
 168        3S          0.04679  -0.02608  -0.07705   0.00618   0.05869
 169        4S          0.04625   0.01019  -0.03279   0.00580   0.01058
 170        5PX         0.05248  -0.05661  -0.01872  -0.02531  -0.06600
 171        5PY        -0.10433   0.00807  -0.04093  -0.02011   0.06435
 172        5PZ         0.06126  -0.16862   0.08472  -0.01382  -0.04599
 173        6PX         0.03544  -0.03910  -0.00827  -0.01780  -0.04793
 174        6PY        -0.06103   0.01289  -0.03692  -0.00875   0.03824
 175        6PZ         0.04377  -0.10710   0.05027  -0.01267  -0.03083
 176        7PX         0.01432  -0.00735   0.00325  -0.00047  -0.01742
 177        7PY        -0.00113   0.00995  -0.01835   0.00043   0.01588
 178        7PZ         0.02328  -0.02892   0.01701  -0.00079  -0.01243
 179        8D 0        0.00298  -0.00311   0.00168  -0.00065  -0.00138
 180        8D+1       -0.00011  -0.00011  -0.00121  -0.00014  -0.00155
 181        8D-1       -0.00128  -0.00472   0.00135  -0.00148   0.00046
 182        8D+2        0.00347   0.00094   0.00099   0.00097  -0.00141
 183        8D-2        0.00127  -0.00191  -0.00049  -0.00168  -0.00235
 184        9D 0        0.00141  -0.00413   0.00085  -0.00532   0.00064
 185        9D+1        0.00024  -0.00255   0.00027  -0.00028  -0.00397
 186        9D-1       -0.00128  -0.00167  -0.00002  -0.00310  -0.00117
 187        9D+2        0.00399   0.00012   0.00150  -0.00048   0.00379
 188        9D-2        0.00090  -0.00490  -0.00086  -0.00378  -0.00308
                          11        12        13        14        15
     Eigenvalues --     2.00000   2.00000   2.00000   2.00000   2.00000
   1 1   S  1S          0.03376  -0.00673   0.04647  -0.00550  -0.10314
   2        2S         -0.03998   0.01507   0.05213  -0.01720   0.20916
   3        3S         -0.11011  -0.14242  -0.28577  -0.02406  -0.09278
   4        4S         -0.06852  -0.09424  -0.19679  -0.07548  -0.08319
   5        5S         -0.01139  -0.06031  -0.12815  -0.01352  -0.10691
   6        6PX        -0.35841  -0.01448  -0.31261  -0.06332   0.21710
   7        6PY        -0.07479   0.03334   0.05098   0.05274   0.06661
   8        6PZ        -0.05182   0.02233  -0.01166  -0.04395   0.02711
   9        7PX        -0.01172  -0.11311  -0.09430   0.06592   0.01496
  10        7PY        -0.05262   0.07907   0.02247  -0.02642  -0.03138
  11        7PZ        -0.00717   0.00241  -0.04318   0.22838   0.15265
  12        8PX         0.01217  -0.02466   0.01228   0.00624   0.02673
  13        8PY        -0.02285  -0.00835   0.00808  -0.01586  -0.02036
  14        8PZ        -0.01062   0.01725  -0.01741   0.04518   0.04442
  15        9PX         0.00451   0.00822   0.00858   0.00968  -0.00025
  16        9PY         0.00959  -0.00377   0.00271  -0.00620  -0.00136
  17        9PZ        -0.01224  -0.00877   0.00584   0.01374   0.01636
  18       10D 0       -0.02288  -0.01403   0.01103   0.04097  -0.02884
  19       10D+1       -0.02052  -0.05031   0.00740   0.06635  -0.00330
  20       10D-1       -0.03171   0.00551  -0.01375  -0.01744  -0.01689
  21       10D+2       -0.03369  -0.02374   0.05353  -0.04334   0.08744
  22       10D-2        0.00202   0.01596   0.01132  -0.02569   0.00222
  23       11D 0        0.00899   0.01687   0.01301  -0.02226  -0.00016
  24       11D+1        0.00618  -0.00102  -0.00386  -0.00332  -0.00288
  25       11D-1        0.00033   0.01130   0.00249  -0.00016   0.00091
  26       11D+2       -0.00472  -0.00591  -0.01670  -0.00588  -0.00306
  27       11D-2       -0.00524   0.00041  -0.00176  -0.00417  -0.00146
  28 2   C  1S          0.03958   0.12960   0.10587   0.14953   0.07452
  29        2S          0.01030  -0.03051   0.04450  -0.02189   0.09270
  30        3S         -0.03360   0.05417   0.13691  -0.10077   0.21044
  31        4S         -0.01650   0.02579   0.07950  -0.04911   0.11531
  32        5PX        -0.06174   0.03121   0.07812  -0.13635   0.15572
  33        5PY        -0.03984  -0.01918  -0.00887   0.06272   0.03183
  34        5PZ         0.00972   0.06504   0.06337   0.01309  -0.06331
  35        6PX        -0.00992  -0.01112   0.06510  -0.06741   0.09358
  36        6PY        -0.05136   0.03402  -0.00892   0.01463  -0.01043
  37        6PZ         0.03024  -0.00457  -0.00182   0.01556   0.00350
  38        7PX        -0.00897   0.00095   0.01800  -0.02404   0.03343
  39        7PY        -0.00501   0.00437  -0.00102   0.00695   0.00295
  40        7PZ         0.00199   0.00520   0.00824  -0.01180  -0.02058
  41        8D 0        0.01770  -0.00624  -0.01650   0.02054   0.01851
  42        8D+1       -0.00545   0.00047  -0.01306  -0.00556   0.01451
  43        8D-1        0.00220   0.00455   0.00717   0.01016   0.00063
  44        8D+2       -0.00021  -0.00575  -0.00872  -0.00836   0.02353
  45        8D-2       -0.00134   0.00531   0.00182   0.00162  -0.00982
  46        9D 0       -0.01198   0.01313   0.00717  -0.00957  -0.01156
  47        9D+1       -0.00027   0.01067   0.00462   0.00011  -0.00225
  48        9D-1       -0.01402   0.00906  -0.00341  -0.00394  -0.00614
  49        9D+2       -0.00378   0.00090   0.01052  -0.00962  -0.00107
  50        9D-2        0.00617  -0.00456  -0.00052   0.00229   0.00538
  51 3   O  1S          0.18774   0.00426  -0.21277  -0.16385   0.04496
  52        2S          0.05831   0.01600   0.09455   0.06416  -0.01480
  53        3S          0.07344   0.03248   0.14787   0.05534  -0.03462
  54        4S          0.03638   0.02605   0.06043  -0.02635  -0.00437
  55        5PX        -0.10570  -0.22806   0.09783   0.07453   0.11322
  56        5PY        -0.18490  -0.00193   0.01480  -0.02507  -0.06565
  57        5PZ         0.10139   0.15710   0.12879  -0.24874  -0.05480
  58        6PX        -0.08312  -0.16309   0.06566   0.05895   0.07871
  59        6PY        -0.12467  -0.00339   0.01193  -0.01588  -0.04496
  60        6PZ         0.05028   0.08353   0.05758  -0.13259  -0.02865
  61        7PX        -0.02893  -0.04452   0.02275   0.01612   0.02795
  62        7PY        -0.03801  -0.00698   0.00614  -0.00368  -0.01284
  63        7PZ         0.01104   0.01855  -0.00630  -0.02194  -0.00794
  64        8D 0       -0.00328  -0.00776  -0.00770   0.01075   0.00220
  65        8D+1        0.00212   0.00572  -0.00381   0.00037  -0.00277
  66        8D-1        0.00589  -0.00064   0.00019   0.00044   0.00189
  67        8D+2        0.00074   0.00127   0.00002  -0.00102   0.00010
  68        8D-2        0.00121  -0.00062   0.00018   0.00020   0.00072
  69        9D 0       -0.00080  -0.00359   0.00154  -0.00316  -0.00029
  70        9D+1        0.00900   0.01495  -0.00468  -0.00577  -0.00571
  71        9D-1        0.00792   0.00002  -0.00162   0.00031   0.00310
  72        9D+2        0.00240   0.00416  -0.00067  -0.00103   0.00014
  73        9D-2        0.00213  -0.00134   0.00026  -0.00027   0.00182
  74 4   O  1S         -0.34134  -0.02235   0.10747  -0.03476  -0.09083
  75        2S          0.01698   0.11990   0.06950   0.11388   0.09544
  76        3S          0.04551   0.15310   0.09868   0.15867   0.14313
  77        4S          0.00199   0.05166   0.06009   0.05809   0.07459
  78        5PX        -0.00446   0.03772   0.08343  -0.21993   0.24632
  79        5PY         0.03280   0.06330   0.04629   0.15244   0.14529
  80        5PZ         0.08176   0.10563  -0.18146  -0.00556  -0.03212
  81        6PX         0.00048   0.02310   0.05010  -0.16002   0.16476
  82        6PY         0.02319   0.03826   0.00618   0.07772   0.06756
  83        6PZ         0.06197   0.07790  -0.11036   0.00264  -0.00496
  84        7PX        -0.00002   0.00797   0.01702  -0.05643   0.04892
  85        7PY         0.00293   0.00104  -0.01463   0.01274  -0.00022
  86        7PZ         0.02716   0.03112  -0.02584  -0.00326   0.00457
  87        8D 0        0.00153   0.00264  -0.00135   0.00298   0.00274
  88        8D+1       -0.00033  -0.00120   0.00238  -0.00245   0.00311
  89        8D-1        0.00054  -0.00157   0.00706   0.00001   0.00195
  90        8D+2        0.00219   0.00165   0.00236   0.00543   0.00338
  91        8D-2       -0.00075  -0.00024  -0.00216   0.00362  -0.00771
  92        9D 0        0.00433   0.00471  -0.00502   0.00133   0.00420
  93        9D+1       -0.00020  -0.00332   0.00175  -0.00470   0.00380
  94        9D-1       -0.00279  -0.00355   0.00296  -0.00319  -0.00776
  95        9D+2        0.00335   0.00593  -0.00154   0.00325  -0.00585
  96        9D-2       -0.00324  -0.00036   0.00068   0.00973  -0.01084
  97 5   F  1S         -0.17449   0.14687   0.07771   0.19899   0.09666
  98        2S          0.11660  -0.18396  -0.02637  -0.02061  -0.02358
  99        3S          0.14805  -0.21167  -0.03926  -0.02219  -0.04793
 100        4S          0.02918  -0.05664  -0.00978   0.03257  -0.01601
 101        5PX         0.15999  -0.02031  -0.03712   0.19275  -0.07534
 102        5PY         0.03548   0.11537  -0.18697  -0.10285   0.03420
 103        5PZ        -0.04276  -0.01484  -0.15270   0.02175   0.16173
 104        6PX         0.10449  -0.01460  -0.02239   0.12908  -0.06094
 105        6PY         0.02429   0.07508  -0.12080  -0.06750   0.02279
 106        6PZ        -0.02429  -0.01400  -0.09070   0.01140   0.08491
 107        7PX         0.02610  -0.00557  -0.00630   0.04059  -0.02268
 108        7PY         0.00564   0.02092  -0.02530  -0.01903   0.00224
 109        7PZ        -0.00235  -0.01099  -0.01982   0.01385   0.02178
 110        8D 0        0.00032  -0.00278  -0.00303   0.00082   0.00201
 111        8D+1        0.00216  -0.00207  -0.00139   0.00165   0.00193
 112        8D-1       -0.00052   0.00076  -0.00154  -0.00077   0.00049
 113        8D+2        0.00081  -0.00042  -0.00053   0.00021   0.00088
 114        8D-2       -0.00019   0.00055  -0.00084  -0.00037   0.00012
 115        9D 0       -0.00011  -0.00133  -0.00288  -0.00265   0.00211
 116        9D+1        0.00263  -0.00248   0.00180   0.00248  -0.00092
 117        9D-1        0.00130   0.00337  -0.00533  -0.00220   0.00125
 118        9D+2        0.00039  -0.00152   0.00167   0.00228   0.00025
 119        9D-2       -0.00036   0.00237  -0.00265   0.00069   0.00010
 120 6   F  1S          0.12684  -0.07118   0.07728   0.01508   0.02348
 121        2S         -0.20047   0.08347  -0.03860   0.00023  -0.10023
 122        3S         -0.24620   0.09060  -0.05966   0.00551  -0.12186
 123        4S         -0.05567   0.03597  -0.01282  -0.00582  -0.03795
 124        5PX         0.02924   0.04977  -0.05201  -0.01426  -0.07498
 125        5PY         0.09572  -0.14451   0.09498   0.07223  -0.05925
 126        5PZ        -0.06565  -0.19867   0.02286   0.14667   0.14308
 127        6PX         0.01387   0.03412  -0.04077  -0.00670  -0.05050
 128        6PY         0.04980  -0.09591   0.05104   0.04957  -0.03483
 129        6PZ        -0.03829  -0.12750   0.01941   0.09282   0.09062
 130        7PX         0.00378   0.00951  -0.01289   0.00588  -0.02162
 131        7PY        -0.00262  -0.01201   0.01101   0.00504  -0.01293
 132        7PZ        -0.00599  -0.03734   0.00267   0.02704   0.02538
 133        8D 0       -0.00031   0.00125  -0.00057  -0.00118  -0.00010
 134        8D+1       -0.00011  -0.00125  -0.00004   0.00135   0.00097
 135        8D-1       -0.00045  -0.00097  -0.00024   0.00127   0.00287
 136        8D+2       -0.00132   0.00103  -0.00070  -0.00191   0.00167
 137        8D-2        0.00006   0.00058   0.00074  -0.00075  -0.00088
 138        9D 0        0.00120   0.00362  -0.00207  -0.00187  -0.00254
 139        9D+1       -0.00033  -0.00197   0.00168   0.00188  -0.00047
 140        9D-1       -0.00049  -0.00219   0.00135   0.00326   0.00183
 141        9D+2        0.00110   0.00703  -0.00077  -0.00527   0.00075
 142        9D-2       -0.00144   0.00118  -0.00028  -0.00225   0.00234
 143 7   F  1S         -0.10451   0.17654   0.01137   0.15460  -0.00748
 144        2S          0.11875  -0.15392   0.01088  -0.05217   0.01906
 145        3S          0.14518  -0.19284   0.00252  -0.07075   0.01174
 146        4S          0.04448  -0.04005  -0.00572  -0.02454  -0.00751
 147        5PX        -0.04536   0.08821  -0.00991   0.19291  -0.14396
 148        5PY        -0.10268  -0.13869   0.09184  -0.12608  -0.06872
 149        5PZ         0.16163   0.16002  -0.22904   0.04840   0.17840
 150        6PX        -0.02501   0.05156  -0.01365   0.11982  -0.09686
 151        6PY        -0.07070  -0.07972   0.06869  -0.07014  -0.04470
 152        6PZ         0.09770   0.11072  -0.14406   0.03924   0.11578
 153        7PX         0.00210   0.00711  -0.00771   0.02770  -0.03103
 154        7PY        -0.02010  -0.01270   0.01648  -0.00959  -0.01148
 155        7PZ         0.01456   0.01943  -0.03559   0.02049   0.03122
 156        8D 0       -0.00203  -0.00206   0.00101  -0.00173  -0.00107
 157        8D+1        0.00106   0.00078  -0.00157  -0.00098   0.00098
 158        8D-1       -0.00020  -0.00202   0.00129   0.00108  -0.00121
 159        8D+2       -0.00247   0.00004   0.00076  -0.00161  -0.00030
 160        8D-2       -0.00034  -0.00111  -0.00051  -0.00228  -0.00002
 161        9D 0       -0.00338  -0.00709   0.00546  -0.00201  -0.00423
 162        9D+1        0.00183   0.00322  -0.00201  -0.00228   0.00130
 163        9D-1        0.00003  -0.00497   0.00283  -0.00315  -0.00101
 164        9D+2       -0.00367   0.00043   0.00330  -0.00063  -0.00253
 165        9D-2       -0.00038  -0.00215   0.00176   0.00093  -0.00154
 166 8   O  1S         -0.00001  -0.03729  -0.03299  -0.05888   0.05132
 167        2S         -0.03104   0.01910   0.06385   0.00154   0.01840
 168        3S         -0.03602   0.03873   0.10705   0.02787   0.04190
 169        4S         -0.00808   0.02405   0.07305   0.02863   0.05553
 170        5PX         0.00253   0.00892   0.02436  -0.10485   0.23386
 171        5PY        -0.02767  -0.03804  -0.11828  -0.10293  -0.10217
 172        5PZ         0.06614  -0.06095  -0.14996   0.03708  -0.05976
 173        6PX         0.00033   0.00531   0.00414  -0.08101   0.15421
 174        6PY        -0.01751  -0.01423  -0.04983  -0.04768  -0.04151
 175        6PZ         0.04328  -0.03142  -0.07576   0.02766  -0.02539
 176        7PX         0.00031   0.00267   0.00171  -0.03447   0.04576
 177        7PY        -0.00581   0.00829  -0.00173  -0.00499   0.00595
 178        7PZ         0.01115  -0.00073  -0.00731   0.00245  -0.00520
 179        8D 0        0.00252  -0.00077  -0.00181   0.00448   0.00228
 180        8D+1       -0.00055   0.00031   0.00156  -0.00133   0.00398
 181        8D-1        0.00013  -0.00488  -0.00767  -0.00021  -0.00277
 182        8D+2        0.00147   0.00259   0.00365   0.00424   0.00264
 183        8D-2        0.00070   0.00057   0.00128  -0.00058   0.00689
 184        9D 0        0.00068  -0.00194  -0.00191   0.00184   0.00297
 185        9D+1       -0.00062  -0.00166  -0.00175  -0.00225   0.00457
 186        9D-1       -0.00045  -0.00075   0.00120   0.00186   0.00577
 187        9D+2        0.00201   0.00118   0.00098   0.00144  -0.00518
 188        9D-2       -0.00031  -0.00038  -0.00421  -0.00618   0.00822
                          16        17        18        19        20
     Eigenvalues --     2.00000   2.00000   2.00000   2.00000   2.00000
   1 1   S  1S          0.04604  -0.04326  -0.03756   0.14608  -0.07179
   2        2S         -0.00528  -0.01964   0.04788   0.00125  -0.07441
   3        3S          0.07875  -0.05491  -0.03601   0.06532  -0.00957
   4        4S          0.14278  -0.08575  -0.06220   0.14285  -0.00870
   5        5S          0.06811  -0.03306  -0.01755   0.07540  -0.03024
   6        6PX        -0.32204   0.25950  -0.10015  -0.15089   0.14512
   7        6PY         0.23509  -0.07046   0.00178   0.20481  -0.00912
   8        6PZ         0.10879  -0.03563   0.10399   0.11800  -0.02253
   9        7PX        -0.08563   0.03417   0.02389  -0.03848  -0.00548
  10        7PY        -0.02199  -0.08945  -0.01633  -0.04800  -0.13662
  11        7PZ         0.03538   0.04477  -0.04011   0.03366   0.02723
  12        8PX        -0.02838   0.01864   0.02271  -0.02319  -0.01724
  13        8PY         0.00260   0.00114  -0.03182  -0.00746  -0.00560
  14        8PZ         0.01181  -0.03283   0.02197  -0.01872  -0.02109
  15        9PX        -0.00869   0.00751   0.00301  -0.00902   0.00135
  16        9PY         0.00120  -0.00071  -0.01711   0.00638  -0.00429
  17        9PZ        -0.00099  -0.01002  -0.01025  -0.00523  -0.00037
  18       10D 0       -0.02827   0.02069  -0.02584   0.00315   0.02998
  19       10D+1       -0.00500  -0.04236  -0.01668  -0.00200  -0.00428
  20       10D-1       -0.00823   0.02691   0.03996  -0.01640   0.01514
  21       10D+2       -0.00047  -0.01691  -0.02291   0.01750   0.02626
  22       10D-2        0.00801  -0.01424  -0.05468  -0.01798   0.00890
  23       11D 0       -0.00131  -0.00429   0.00862  -0.00850  -0.00865
  24       11D+1        0.00225  -0.00208   0.00114  -0.00456  -0.00668
  25       11D-1       -0.00397  -0.00888  -0.00383  -0.00979  -0.00531
  26       11D+2       -0.00523  -0.00549   0.00030  -0.00542   0.00266
  27       11D-2       -0.00273   0.00686   0.00239   0.00267   0.00112
  28 2   C  1S          0.13469  -0.17985  -0.01553   0.18498   0.37099
  29        2S         -0.02221   0.02908   0.02550  -0.03633   0.02162
  30        3S          0.01738  -0.02067  -0.00010   0.02741  -0.00768
  31        4S          0.00329  -0.01556  -0.00371  -0.00041   0.01438
  32        5PX         0.08249  -0.08584  -0.05812   0.06570   0.03104
  33        5PY         0.04328  -0.09450  -0.03860  -0.01939  -0.03734
  34        5PZ         0.00497   0.03109   0.06561   0.01483  -0.01253
  35        6PX        -0.00129  -0.01128   0.00828  -0.02472   0.00377
  36        6PY        -0.01139  -0.02949   0.00748  -0.00353  -0.01096
  37        6PZ         0.00945   0.02738  -0.01824  -0.00357   0.01160
  38        7PX         0.00717  -0.01095  -0.00359   0.00445   0.00442
  39        7PY        -0.00082  -0.00454  -0.00957  -0.00673  -0.00202
  40        7PZ        -0.00368  -0.00113   0.00448   0.00306  -0.00266
  41        8D 0        0.00369   0.01053  -0.01121  -0.01129   0.00111
  42        8D+1        0.00348   0.00372  -0.00401   0.00127   0.01297
  43        8D-1        0.00239  -0.01539  -0.02713  -0.01375  -0.00101
  44        8D+2        0.01292  -0.00560  -0.00825   0.00169  -0.00134
  45        8D-2       -0.00605   0.00314   0.01375  -0.00503   0.01820
  46        9D 0       -0.00168  -0.00247   0.00305   0.01206   0.00153
  47        9D+1        0.00071   0.00793   0.00546   0.00495  -0.00394
  48        9D-1       -0.00500   0.00172   0.00340  -0.00270   0.00537
  49        9D+2       -0.00968   0.00630   0.01066  -0.01009  -0.00105
  50        9D-2        0.00088  -0.00321   0.00216   0.00058  -0.01604
  51 3   O  1S         -0.30773  -0.36522   0.20476   0.10887  -0.05080
  52        2S         -0.15004   0.16358  -0.02562   0.02919   0.13443
  53        3S         -0.17619   0.22228  -0.03288   0.01317   0.15944
  54        4S         -0.05621   0.06218   0.00177  -0.01634   0.04177
  55        5PX        -0.04177  -0.20430   0.00240  -0.02152  -0.03051
  56        5PY         0.00621   0.01633   0.22541  -0.04846   0.07347
  57        5PZ        -0.03571   0.08981   0.07905  -0.01798   0.01356
  58        6PX        -0.02639  -0.15030  -0.00132  -0.00989  -0.02023
  59        6PY         0.00576   0.01297   0.16558  -0.02901   0.05342
  60        6PZ        -0.01071   0.04484   0.04132   0.00397   0.00862
  61        7PX        -0.00076  -0.04801  -0.00115   0.00137  -0.00562
  62        7PY         0.00401   0.00699   0.05771  -0.00491   0.02249
  63        7PZ         0.00551   0.01301   0.01435   0.00368  -0.00223
  64        8D 0        0.00023  -0.00068  -0.00321   0.00185   0.00148
  65        8D+1        0.00195   0.00565  -0.00125   0.00162   0.00166
  66        8D-1        0.00041   0.00024  -0.00468   0.00206  -0.00039
  67        8D+2        0.00009   0.00136  -0.00072   0.00048   0.00057
  68        8D-2        0.00006  -0.00049  -0.00174   0.00020   0.00003
  69        9D 0       -0.00279  -0.00255   0.00071  -0.00279  -0.00117
  70        9D+1        0.00338   0.01201   0.00072  -0.00012   0.00069
  71        9D-1       -0.00057   0.00105  -0.01494   0.00078  -0.00133
  72        9D+2        0.00177   0.00329  -0.00127   0.00096   0.00107
  73        9D-2       -0.00070  -0.00074  -0.00604   0.00046  -0.00249
  74 4   O  1S          0.38210   0.46578  -0.15419   0.01280  -0.16661
  75        2S         -0.04042  -0.06554   0.14102  -0.15822  -0.09471
  76        3S         -0.08500  -0.08146   0.19069  -0.19976  -0.08411
  77        4S         -0.04225   0.00375   0.06867  -0.06253   0.01470
  78        5PX         0.02065   0.01890  -0.15801  -0.04915   0.12866
  79        5PY        -0.02245   0.04981   0.10501  -0.02673  -0.02906
  80        5PZ         0.00653   0.01593  -0.08356  -0.03051  -0.19058
  81        6PX         0.02397   0.00803  -0.12286  -0.03055   0.08441
  82        6PY        -0.00001   0.02466   0.04802  -0.00479  -0.04248
  83        6PZ        -0.00722   0.02133  -0.05129  -0.02447  -0.12245
  84        7PX         0.01363  -0.00451  -0.04226  -0.00712   0.02267
  85        7PY        -0.00071   0.00323   0.00896   0.00144  -0.02283
  86        7PZ        -0.00411   0.01056  -0.01436  -0.00745  -0.03472
  87        8D 0        0.00035   0.00154  -0.00050  -0.00068  -0.00189
  88        8D+1       -0.00018   0.00039  -0.00182  -0.00015   0.00335
  89        8D-1       -0.00017   0.00214   0.00142   0.00210   0.00597
  90        8D+2        0.00049   0.00220   0.00195   0.00120  -0.00033
  91        8D-2        0.00004  -0.00221   0.00338   0.00077  -0.00387
  92        9D 0       -0.00076   0.00347  -0.00604   0.00024  -0.00776
  93        9D+1        0.00221  -0.00174  -0.00421  -0.00045   0.00408
  94        9D-1        0.00254  -0.00334   0.00307   0.00181   0.00264
  95        9D+2        0.00069   0.00022   0.00124   0.00259  -0.00800
  96        9D-2       -0.00245  -0.00067   0.01099   0.00114  -0.00251
  97 5   F  1S         -0.16991   0.06169  -0.01924   0.66865  -0.03619
  98        2S         -0.00181   0.02815  -0.12423  -0.03010   0.08603
  99        3S          0.00678   0.03871  -0.13320  -0.06474   0.09525
 100        4S         -0.00191   0.00825  -0.02661  -0.01919   0.02153
 101        5PX        -0.04471   0.05846  -0.08048  -0.07690  -0.09810
 102        5PY         0.08926  -0.02237   0.15642   0.09807   0.03876
 103        5PZ         0.00009   0.04303   0.04511  -0.03987   0.03888
 104        6PX        -0.02817   0.03824  -0.05195  -0.04832  -0.06365
 105        6PY         0.05749  -0.01320   0.10038   0.06163   0.02784
 106        6PZ         0.00038   0.02696   0.03079  -0.02823   0.02617
 107        7PX        -0.01046   0.01519  -0.00881  -0.01369  -0.01239
 108        7PY         0.01033  -0.00186   0.01800   0.01056   0.01038
 109        7PZ         0.00528   0.00339  -0.00185  -0.00500   0.01196
 110        8D 0       -0.00112   0.00147   0.00041  -0.00185   0.00096
 111        8D+1       -0.00059   0.00081  -0.00194  -0.00177  -0.00023
 112        8D-1        0.00146  -0.00099   0.00199   0.00169  -0.00084
 113        8D+2        0.00024   0.00026  -0.00060  -0.00039  -0.00028
 114        8D-2        0.00055  -0.00040   0.00102   0.00055   0.00008
 115        9D 0       -0.00015   0.00260   0.00357  -0.00213   0.00177
 116        9D+1       -0.00071  -0.00029  -0.00297  -0.00159  -0.00145
 117        9D-1        0.00327  -0.00188   0.00350   0.00194   0.00180
 118        9D+2        0.00051  -0.00232  -0.00177   0.00045  -0.00077
 119        9D-2        0.00134  -0.00153   0.00310   0.00032   0.00285
 120 6   F  1S         -0.31901   0.03244  -0.11181   0.16874  -0.26060
 121        2S         -0.10023  -0.08596   0.03810  -0.02812   0.01829
 122        3S         -0.10047  -0.11102   0.04354  -0.04490   0.02511
 123        4S         -0.02162  -0.03238   0.00170  -0.02490   0.00570
 124        5PX        -0.06288   0.18675   0.03353   0.09219  -0.14298
 125        5PY        -0.03290   0.16859   0.23008  -0.02476   0.06848
 126        5PZ         0.07445   0.04472   0.05817   0.02022  -0.08332
 127        6PX        -0.03816   0.11128   0.01379   0.05615  -0.09631
 128        6PY        -0.01572   0.09146   0.13473  -0.02306   0.04201
 129        6PZ         0.04479   0.03591   0.04448   0.01581  -0.05209
 130        7PX        -0.01284   0.02091   0.00452   0.00384  -0.02472
 131        7PY        -0.00201   0.00587   0.02473  -0.00528   0.01257
 132        7PZ         0.00819   0.01038   0.00645   0.00115  -0.00822
 133        8D 0        0.00012  -0.00217  -0.00286  -0.00026   0.00083
 134        8D+1        0.00125  -0.00102  -0.00009  -0.00029   0.00001
 135        8D-1        0.00280  -0.00154  -0.00171   0.00119  -0.00176
 136        8D+2        0.00136  -0.00212  -0.00310   0.00177  -0.00086
 137        8D-2       -0.00161   0.00350   0.00256   0.00081  -0.00052
 138        9D 0       -0.00189  -0.00168  -0.00264  -0.00061   0.00062
 139        9D+1        0.00023   0.00092   0.00277  -0.00022   0.00264
 140        9D-1        0.00154   0.00214   0.00181   0.00199  -0.00208
 141        9D+2        0.00104  -0.00014  -0.00601   0.00368  -0.00220
 142        9D-2       -0.00039   0.00240  -0.00149   0.00080  -0.00262
 143 7   F  1S         -0.18741   0.04036  -0.11066   0.19130   0.01197
 144        2S          0.02926   0.01742   0.08071  -0.01264  -0.05141
 145        3S          0.03535   0.02514   0.09101  -0.02316  -0.05129
 146        4S         -0.00264   0.02942   0.03707  -0.00068  -0.02402
[...]
     12 -0.562034D-02 -0.469034D-02 -0.864526D-01 -0.483522D-01 -0.864261D-01
     13 -0.469361D-02 -0.468939D-02 -0.483541D-01 -0.864439D-01 -0.864058D-01
     14 -0.236513D-01 -0.236258D-01  0.271501D-01 -0.446359D-02 -0.447523D-02
     15 -0.110212D-01 -0.236084D-01 -0.445531D-02  0.271493D-01 -0.444335D-02
     16 -0.236027D-01 -0.109610D-01 -0.445119D-02 -0.444632D-02  0.271658D-01
     17  0.284440D-01  0.618730D-02 -0.104609D-01 -0.104570D-01  0.118132D-02
     18  0.617132D-02  0.283942D-01 -0.104506D-01  0.117622D-02 -0.104489D-01
     19  0.284077D-01  0.283757D-01  0.117997D-02 -0.104496D-01 -0.104655D-01
     20 -0.846197D-02  0.847232D-02 -0.760760D-05  0.609941D-02 -0.609878D-02
     21  0.393431D-02 -0.163518D-01  0.232494D-02  0.843665D-02 -0.107693D-01
     22  0.163378D-01 -0.394484D-02 -0.232622D-02  0.107594D-01 -0.843664D-02
     23 -0.123992D-01  0.163542D-01 -0.843290D-02 -0.232593D-02  0.107841D-01
     24 -0.289282D-05 -0.846994D-02 -0.610035D-02  0.113127D-04  0.611360D-02
     25  0.124006D-01  0.393703D-02 -0.107515D-01  0.233403D-02  0.844621D-02
     26 -0.163415D-01  0.124122D-01  0.842178D-02 -0.107767D-01  0.233307D-02
     27 -0.394518D-02 -0.124120D-01  0.107543D-01 -0.843942D-02 -0.233740D-02
     28  0.845831D-02 -0.501306D-05  0.610317D-02 -0.611671D-02 -0.478485D-05
               11            12            13            14            15 
     11  0.943224D-01
     12  0.294164D-01  0.943715D-01
     13  0.294295D-01  0.294396D-01  0.943442D-01
     14 -0.539313D-02 -0.538765D-02 -0.182979D-02  0.142238D+00
     15 -0.540136D-02 -0.184032D-02 -0.540064D-02  0.579576D-02  0.142324D+00
     16 -0.183425D-02 -0.540989D-02 -0.541071D-02  0.584609D-02  0.582506D-02
     17  0.526093D-02  0.420375D-02  0.420483D-02 -0.788300D-01 -0.788931D-01
     18  0.419865D-02  0.525820D-02  0.420359D-02 -0.787264D-01 -0.887105D-02
     19  0.419985D-02  0.420653D-02  0.526394D-02 -0.886902D-02 -0.787489D-01
     20  0.191964D-01 -0.191894D-01  0.000000D+00  0.312567D-05  0.102548D-02
     21  0.184510D-01 -0.188158D-01  0.372557D-03  0.165213D-02  0.267928D-02
     22  0.188219D-01 -0.184484D-01 -0.369257D-03 -0.164568D-02  0.433947D-02
     23 -0.184485D-01 -0.373608D-03  0.188010D-01 -0.267987D-02 -0.165310D-02
     24 -0.191939D-01  0.000000D+00  0.191736D-01 -0.103087D-02  0.000000D+00
     25 -0.188230D-01  0.367389D-03  0.184318D-01 -0.432868D-02  0.166089D-02
     26  0.374716D-03  0.184453D-01 -0.188034D-01  0.269522D-02 -0.434524D-02
     27 -0.370672D-03  0.188189D-01 -0.184308D-01  0.434422D-02 -0.269143D-02
     28  0.000000D+00  0.191863D-01 -0.191726D-01  0.104641D-02 -0.103124D-02
               16            17            18            19            20 
     16  0.142419D+00
     17 -0.890357D-02  0.113388D+00
     18 -0.789014D-01  0.333961D-01  0.113279D+00
     19 -0.788537D-01  0.334151D-01  0.334101D-01  0.113245D+00
     20 -0.102802D-02 -0.190223D-01  0.190351D-01  0.000000D+00  0.315146D-01
     21 -0.434082D-02  0.168643D-01  0.108462D-02 -0.179543D-01  0.786146D-02
     22 -0.267653D-02 -0.108556D-02 -0.168921D-01  0.179608D-01  0.785802D-02
     23  0.433318D-02 -0.168621D-01  0.179567D-01 -0.108173D-02  0.827152D-02
     24  0.102038D-02  0.190245D-01  0.624703D-05 -0.190352D-01 -0.153816D-01
     25  0.268467D-02  0.107463D-02 -0.179705D-01  0.168799D-01 -0.153851D-01
     26  0.165173D-02 -0.179430D-01  0.168742D-01  0.108027D-02  0.827041D-02
     27 -0.166107D-02  0.179435D-01 -0.107626D-02 -0.168732D-01 -0.153827D-01
     28  0.322085D-05 -0.632225D-05 -0.190530D-01  0.190419D-01 -0.153862D-01
               21            22            23            24            25 
     21  0.324669D-01
     22  0.833578D-02  0.324724D-01
     23 -0.163320D-01 -0.158609D-01  0.324608D-01
     24  0.827344D-02 -0.153831D-01  0.785732D-02  0.315124D-01
     25 -0.158577D-01  0.875349D-02  0.832845D-02  0.785585D-02  0.324670D-01
     26 -0.158583D-01 -0.163374D-01  0.875146D-02 -0.153772D-01 -0.158563D-01
     27  0.874715D-02 -0.158596D-01 -0.158520D-01  0.827784D-02 -0.163289D-01
     28 -0.153839D-01  0.827698D-02 -0.153809D-01 -0.153787D-01  0.828223D-02
               26            27            28 
     26  0.324599D-01
     27  0.833125D-02  0.324611D-01
     28  0.785215D-02  0.785437D-02  0.315153D-01
 Leave Link  716 at Sun Aug  2 03:48:22 2020, MaxMem=   524288000 cpu:               0.2 elap:               0.0
 (Enter /home/ubuntu/g16/l103.exe)

 GradGradGradGradGradGradGradGradGradGradGradGradGradGradGradGradGradGrad
 Berny optimization.
 Red2BG is reusing G-inverse.
 Internal  Forces:  Max     0.000153397 RMS     0.000062185
 Search for a local minimum.
 Step number   1 out of a maximum of    2
 All quantities printed in internal units (Hartrees-Bohrs-Radians)
 Second derivative matrix not updated -- analytic derivatives used.
 ITU=  0
     Eigenvalues ---    0.00225   0.08759   0.08767   0.11911   0.11918
     Eigenvalues ---    0.12815   0.15528   0.15540   0.21663   0.21675
     Eigenvalues ---    0.27436   0.30867   0.30885   0.47801   0.48918
     Eigenvalues ---    0.48936   0.49288   0.51739
 Angle between quadratic step and forces=  37.66 degrees.
 Linear search not attempted -- first point.
 Iteration  1 RMS(Cart)=  0.00037847 RMS(Int)=  0.00000009
 Iteration  2 RMS(Cart)=  0.00000009 RMS(Int)=  0.00000004
 ITry= 1 IFail=0 DXMaxC= 1.08D-03 DCOld= 1.00D+10 DXMaxT= 3.00D-01 DXLimC= 3.00D+00 Rises=F
 Variable       Old X    -DE/DX   Delta X   Delta X   Delta X     New X
                                 (Linear)    (Quad)   (Total)
    R1        3.60891  -0.00003   0.00000  -0.00026  -0.00026   3.60865
    R2        2.83609   0.00012   0.00000   0.00024   0.00024   2.83633
    R3        2.83621   0.00005   0.00000   0.00012   0.00012   2.83633
    R4        2.83602   0.00015   0.00000   0.00031   0.00031   2.83633
    R5        2.56415  -0.00013   0.00000  -0.00030  -0.00030   2.56384
    R6        2.56396  -0.00008   0.00000  -0.00012  -0.00012   2.56384
    R7        2.56430  -0.00015   0.00000  -0.00046  -0.00046   2.56384
    A1        1.78555   0.00001   0.00000   0.00009   0.00009   1.78565
    A2        1.78546   0.00004   0.00000   0.00017   0.00017   1.78563
    A3        1.78572   0.00002   0.00000  -0.00007  -0.00007   1.78565
    A4        2.01726  -0.00000   0.00000   0.00006   0.00006   2.01731
    A5        2.01722   0.00000   0.00000   0.00008   0.00008   2.01730
    A6        2.01758  -0.00004   0.00000  -0.00027  -0.00027   2.01731
    A7        1.95153  -0.00005   0.00000  -0.00048  -0.00048   1.95106
    A8        1.95125   0.00001   0.00000  -0.00017  -0.00017   1.95108
    A9        1.95046   0.00010   0.00000   0.00061   0.00061   1.95107
   A10        1.86851   0.00001   0.00000   0.00002   0.00002   1.86853
   A11        1.86839  -0.00001   0.00000   0.00012   0.00012   1.86852
   A12        1.86862  -0.00005   0.00000  -0.00010  -0.00010   1.86852
    D1        3.14129   0.00002   0.00000   0.00019   0.00019   3.14148
    D2       -1.04706  -0.00001   0.00000  -0.00024  -0.00024  -1.04730
    D3        1.04716  -0.00000   0.00000  -0.00006  -0.00006   1.04710
    D4        1.04705   0.00000   0.00000   0.00003   0.00003   1.04708
    D5       -3.14130  -0.00003   0.00000  -0.00040  -0.00040   3.14149
    D6       -1.04708  -0.00002   0.00000  -0.00022  -0.00022  -1.04730
    D7       -1.04760   0.00003   0.00000   0.00029   0.00029  -1.04731
    D8        1.04723   0.00000   0.00000  -0.00014  -0.00014   1.04709
    D9        3.14145   0.00001   0.00000   0.00004   0.00004   3.14149
         Item               Value     Threshold  Converged?
 Maximum Force            0.000153     0.000450     YES
 RMS     Force            0.000062     0.000300     YES
 Maximum Displacement     0.001075     0.001800     YES
 RMS     Displacement     0.000378     0.001200     YES
 Predicted change in Energy=-1.721227D-07
 Optimization completed.
    -- Stationary point found.
                           ----------------------------
                           !   Optimized Parameters   !
                           ! (Angstroms and Degrees)  !
 --------------------------                            --------------------------
 ! Name  Definition              Value          Derivative Info.                !
 --------------------------------------------------------------------------------
 ! R1    R(1,2)                  1.9098         -DE/DX =    0.0                 !
 ! R2    R(1,3)                  1.5008         -DE/DX =    0.0001              !
 ! R3    R(1,4)                  1.5009         -DE/DX =    0.0                 !
 ! R4    R(1,8)                  1.5008         -DE/DX =    0.0002              !
 ! R5    R(2,5)                  1.3569         -DE/DX =   -0.0001              !
 ! R6    R(2,6)                  1.3568         -DE/DX =   -0.0001              !
 ! R7    R(2,7)                  1.357          -DE/DX =   -0.0002              !
 ! A1    A(2,1,3)              102.3047         -DE/DX =    0.0                 !
 ! A2    A(2,1,4)              102.2995         -DE/DX =    0.0                 !
 ! A3    A(2,1,8)              102.314          -DE/DX =    0.0                 !
 ! A4    A(3,1,4)              115.5803         -DE/DX =    0.0                 !
 ! A5    A(3,1,8)              115.5781         -DE/DX =    0.0                 !
 ! A6    A(4,1,8)              115.5988         -DE/DX =    0.0                 !
 ! A7    A(1,2,5)              111.8146         -DE/DX =   -0.0001              !
 ! A8    A(1,2,6)              111.7985         -DE/DX =    0.0                 !
 ! A9    A(1,2,7)              111.753          -DE/DX =    0.0001              !
 ! A10   A(5,2,6)              107.0576         -DE/DX =    0.0                 !
 ! A11   A(5,2,7)              107.0511         -DE/DX =    0.0                 !
 ! A12   A(6,2,7)              107.064          -DE/DX =    0.0                 !
 ! D1    D(3,1,2,5)            179.9828         -DE/DX =    0.0                 !
 ! D2    D(3,1,2,6)            -59.9923         -DE/DX =    0.0                 !
 ! D3    D(3,1,2,7)             59.9979         -DE/DX =    0.0                 !
 ! D4    D(4,1,2,5)             59.9917         -DE/DX =    0.0                 !
 ! D5    D(4,1,2,6)            180.0165         -DE/DX =    0.0                 !
 ! D6    D(4,1,2,7)            -59.9932         -DE/DX =    0.0                 !
 ! D7    D(8,1,2,5)            -60.023          -DE/DX =    0.0                 !
 ! D8    D(8,1,2,6)             60.0018         -DE/DX =    0.0                 !
 ! D9    D(8,1,2,7)            179.992          -DE/DX =    0.0                 !
 --------------------------------------------------------------------------------
 GradGradGradGradGradGradGradGradGradGradGradGradGradGradGradGradGradGrad

 Leave Link  103 at Sun Aug  2 03:48:22 2020, MaxMem=   524288000 cpu:               0.1 elap:               0.0
 (Enter /home/ubuntu/g16/l9999.exe)

 ----------------------------------------------------------------------

 Electric dipole moment (input orientation):
 (Debye = 10**-18 statcoulomb cm , SI units = C m)
                  (au)            (Debye)         (10**-30 SI)
   Tot        0.164343D+01      0.417718D+01      0.139336D+02
   x          0.150829D+01      0.383370D+01      0.127878D+02
   y          0.347643D+00      0.883621D+00      0.294744D+01
   z          0.552319D+00      0.140385D+01      0.468275D+01

 Dipole polarizability, Alpha (input orientation).
 (esu units = cm**3 , SI units = C**2 m**2 J**-1)
 Alpha(0;0):
               (au)            (10**-24 esu)      (10**-40 SI)
   iso        0.553643D+02      0.820415D+01      0.912835D+01
   aniso      0.323811D+01      0.479838D+00      0.533892D+00
   xx         0.570138D+02      0.844857D+01      0.940030D+01
   yx         0.627224D+00      0.929450D-01      0.103415D+00
   yy         0.544311D+02      0.806586D+01      0.897448D+01
   zx         0.998702D+00      0.147992D+00      0.164664D+00
   zy         0.228078D+00      0.337976D-01      0.376050D-01
   zz         0.546481D+02      0.809801D+01      0.901025D+01

 ----------------------------------------------------------------------

 Dipole orientation:
    16          3.47194233         -0.14239962          8.96929369
     6          3.47103826         -0.14318027         12.57820218
     8          1.06527701          1.23081196          8.36458552
     8          3.48595138         -2.91335045          8.36452051
     9          5.53815478         -1.32362599         13.53131368
     9          3.45820858          2.23720326         13.53082380
     9          1.41431267         -1.34477870         13.52777516
     8          5.86433638          1.25571629          8.36536117

 Electric dipole moment (dipole orientation):
 (Debye = 10**-18 statcoulomb cm , SI units = C m)
                  (au)            (Debye)         (10**-30 SI)
   Tot        0.164343D+01      0.417718D+01      0.139336D+02
   x          0.000000D+00      0.000000D+00      0.000000D+00
   y          0.000000D+00      0.000000D+00      0.000000D+00
   z          0.164343D+01      0.417718D+01      0.139336D+02

 Dipole polarizability, Alpha (dipole orientation).
 (esu units = cm**3 , SI units = C**2 m**2 J**-1)
 Alpha(0;0):
               (au)            (10**-24 esu)      (10**-40 SI)
   iso        0.553643D+02      0.820415D+01      0.912835D+01
   aniso      0.323811D+01      0.479838D+00      0.533892D+00
   xx         0.542826D+02      0.804385D+01      0.894999D+01
   yx         0.520679D-03      0.771567D-04      0.858484D-04
   yy         0.542873D+02      0.804455D+01      0.895077D+01
   zx         0.186416D-02      0.276239D-03      0.307358D-03
   zy        -0.153417D-02     -0.227340D-03     -0.252950D-03
   zz         0.575231D+02      0.852404D+01      0.948427D+01

 ----------------------------------------------------------------------
 1\1\GINC-LC06-1-2\Freq\UB3LYP\Aug-CC-pVDZ\C1F3O3S1(1-)\UBUNTU\02-Aug-2
 020\0\\#P Geom=AllCheck Guess=TCheck SCRF=Check GenChk UB3LYP/Aug-CC-p
 VDZ Freq\\TfO-_UB3LYP-aug-cc-pVDZ\\-1,1\S,5.04601,0.66422,-0.07512\C,6
 .79861,1.06787,0.56723\O,4.17607,1.48392,0.83245\O,4.9681,-0.82177,0.1
 207\F,7.75653,0.41187,-0.13505\F,7.07572,2.39295,0.47642\F,6.94995,0.7
 1775,1.86949\O,5.11307,1.12773,-1.50093\\Version=ES64L-G16RevA.03\Stat
 e=1-A\HF=-961.6160931\S2=0.\S2-1=0.\S2A=0.\RMSD=1.591e-09\RMSF=7.375e-
 05\ZeroPoint=0.0256516\Thermal=0.0330922\Dipole=1.5082936,0.3476432,0.
 5523188\DipoleDeriv=1.7772603,-0.0731862,-0.1160897,-0.0730454,2.07768
 96,-0.026788,-0.1161267,-0.0269431,2.0522705,1.357896,-0.0134572,-0.02
 20103,-0.0135535,1.4132127,-0.0050716,-0.0213898,-0.0049467,1.4082386,
 -0.9674651,0.2068523,0.2160738,0.2932251,-0.7993947,-0.2084135,0.31996
 58,-0.2161341,-0.8353886,-0.6480313,-0.059797,-0.0084941,-0.1842655,-1
 .3406944,0.0383358,0.010553,0.0885677,-0.6134754,-0.9353432,0.2549538,
 0.2448642,0.2272547,-0.4014488,-0.1642873,0.211247,-0.1616849,-0.42330
 28,-0.4965331,-0.3154731,-0.0517033,-0.2755225,-0.9942273,0.0032957,-0
 .0579773,-0.0129221,-0.2690865,-0.4552391,0.012055,-0.2697399,-0.00010
 15,-0.2921292,0.1433866,-0.2304622,0.1568997,-1.0123819,-0.6325445,-0.
 0119478,0.0070993,0.0260086,-0.6630079,0.2195424,-0.1158098,0.1771635,
 -1.3068739\Polar=57.0137844,0.6272242,54.4311308,0.9987021,0.2280778,5
 4.6480933\Quadrupole=-0.6556205,0.3725223,0.2830982,-0.2486763,-0.3987
 089,-0.0906584\PG=C01 [X(C1F3O3S1)]\NImag=0\\0.47275948,-0.07811927,0.
 79363171,-0.12418230,-0.02869464,0.76645875,-0.12640667,-0.02547806,-0
 .04055071,0.46632402,-0.02547965,-0.02163692,-0.00935129,0.00656508,0.
 43970694,-0.04059958,-0.00936044,-0.03063418,0.01034269,0.00240629,0.4
 4163634,-0.21019001,0.12012637,0.13237729,0.00343707,0.01867001,0.0227
 8378,0.20051054,0.11855050,-0.18563566,-0.12151608,-0.00290732,-0.0063
 3761,-0.00767414,-0.14190360,0.18615803,0.13049190,-0.12137475,-0.2099
 8029,-0.00317399,-0.00573883,-0.00736796,-0.15800898,0.13902474,0.2129
 6157,-0.08049278,-0.02631865,0.00211001,0.00859798,-0.01292802,0.00550
 248,0.01381182,0.02333247,0.00390290,0.04989297,-0.02406098,-0.4431341
 6,0.04647130,0.01813318,-0.01933158,0.01022465,0.00111959,-0.01847624,
 0.00151411,0.02607118,0.48448997,0.00177222,0.04558686,-0.08201165,0.0
 0074906,-0.00225975,0.00047076,0.00490603,-0.02136888,0.01132898,-0.00
 801975,-0.05438874,0.06503993,-0.00136777,0.02605778,0.03118352,-0.185
 73308,0.05615084,0.05667065,-0.01452123,0.00073395,-0.00048493,0.00010
 059,-0.00862911,-0.00279834,0.18443150,-0.00047341,-0.00553607,-0.0068
 8590,0.05848070,-0.09579482,-0.03124526,0.00159167,0.00160383,0.001162
 70,-0.00080653,0.00539716,0.00097581,-0.09459676,0.14015563,-0.0006957
 6,-0.00449227,-0.00530594,0.05945399,-0.03146280,-0.09787792,0.0005353
 2,0.00108610,0.00210979,-0.00067743,0.00149228,0.00145720,-0.10369067,
 0.07234382,0.15048544,0.01199981,-0.02225362,0.00815041,-0.09177218,-0
 .05619911,-0.00201857,-0.00271080,0.00280964,0.00054505,-0.00755446,-0
 .00748152,-0.00219306,0.01060725,0.03657871,0.00535569,0.06804789,0.01
 592726,-0.02609389,0.01040406,-0.05955737,-0.22160811,-0.00011017,-0.0
 0495100,0.00796267,0.00232380,-0.00871303,-0.00356551,-0.00283839,0.02
 175040,-0.06003403,-0.02255076,0.04154689,0.33417393,0.00233792,-0.004
 93876,0.00184849,-0.00151145,0.00124467,-0.06621736,-0.00176831,0.0017
 4095,0.00170450,-0.00201193,-0.00234895,0.00030696,0.00215946,-0.02656
 764,0.00614328,-0.00829701,-0.02316909,0.07304680,0.01289325,0.0098191
 5,-0.01764797,-0.08274537,0.00731226,-0.04295755,-0.00252650,0.0002700
 6,0.00207746,-0.00146662,-0.00431751,0.00153746,0.00577869,-0.00024930
 ,0.04097013,0.01242760,-0.00469484,0.00970580,0.06197750,-0.00182035,-
 0.00093121,0.00148967,0.00833749,-0.07306664,0.03402483,-0.00051857,0.
 00123209,0.00021474,0.00016115,0.00362518,-0.00160457,-0.00034840,0.01
 291525,-0.01662047,0.00195183,-0.03708394,0.05489777,-0.00817490,0.092
 17102,0.02007586,0.01444235,-0.02430515,-0.04628662,0.03288219,-0.2234
 1920,-0.00588356,0.00156568,0.00826552,-0.00245589,-0.00705964,0.00481
 224,0.02622830,-0.01126423,-0.06196811,0.00323480,0.04225541,-0.018582
 46,0.01431324,-0.07162182,0.32081355,-0.07919531,-0.00383369,0.0085597
 7,0.00829823,0.00590859,-0.00972390,0.01218910,-0.00088570,0.02465059,
 0.01711050,-0.00083483,0.00404638,0.00070402,-0.00052507,-0.00125126,-
 0.00104511,-0.00130831,-0.00061448,-0.00633856,0.00041174,-0.00922613,
 0.04827713,-0.00452410,-0.11066379,0.10808288,-0.00357370,-0.00193127,
 0.00173424,0.00586552,0.01349288,-0.01712652,-0.00079856,-0.00900482,0
 .03589767,-0.00111868,0.00129304,0.00020409,0.00304718,0.00624888,-0.0
 0085896,0.00003508,0.00113824,-0.00119994,0.00106726,0.09942684,0.0107
 9975,0.10883164,-0.41607003,0.02097703,0.01227952,-0.01659047,0.005058
 42,0.00714162,-0.01902211,0.00164961,0.00409498,-0.00140441,-0.0092679
 9,0.00148070,0.00495626,-0.00477730,-0.00631486,0.00174980,-0.00799856
 ,-0.00078015,-0.00561639,-0.01644097,-0.12673345,0.45199735\\-0.000112
 75,0.00001960,-0.00008219,-0.00004590,0.00006109,-0.00011158,0.0000689
 1,-0.00006197,-0.00007130,0.00000833,0.00005374,0.00002740,0.00010563,
 -0.00006593,-0.00004721,0.00000775,0.00008164,-0.00001243,-0.00002579,
 -0.00007199,0.00014366,-0.00000618,-0.00001619,0.00015364\\\@


 ALL OUR THINKING ABOUT NATURE MUST NECESSARILY MOVE IN CIRCLES OR SPIRALS;
 FOR WE CAN ONLY UNDERSTAND NATURE IF WE THINK ABOUT HER, AND WE CAN ONLY
 THINK BECAUSE OUR BRAIN IS BUILT IN ACCORDANCE WITH NATURE'S LAWS.

                                             -- TIMOTHY FERRIS, "GALAXIES"
 Job cpu time:       0 days  0 hours 25 minutes 57.1 seconds.
 Elapsed time:       0 days  0 hours  3 minutes 43.4 seconds.
 File lengths (MBytes):  RWF=     77 Int=      0 D2E=      0 Chk=      5 Scr=      1
 Normal termination of Gaussian 16 at Sun Aug  2 03:48:22 2020.
